 Entering Gaussian System, Link 0 = g09



 Center     Atomic      Atomic             Coordinates (Angstroms)


       1         6         0     3.425044    -0.933675    -0.112922
       2         6         0     3.522907     0.449003     0.054319
       3         6         0    -3.522907    -0.449003    -0.054319
       4         6         0    -3.425044     0.933675     0.112922
       5         6         0     0.696388     0.369602    -3.463217
       6         6         0    -0.696368     0.466758    -3.451469
       7         6         0     0.696368    -0.466758     3.451469
       8         6         0    -0.696388    -0.369602     3.463217
       9         6         0    -0.244099    -3.365013    -1.110196
      10         6         0    -0.244103    -3.532666     0.275892
      11         6         0     0.244103     3.532666    -0.275892
      12         6         0     0.244099     3.365013     1.110196
      13         6         0     2.925411    -1.480941    -1.363915
      14         6         0     2.925405    -1.763421     0.971513
      15         6         0     3.125167     1.341348    -1.022547
      16         6         0     3.125160     1.058868     1.312881
      17         6         0    -3.125160    -1.058868    -1.312881
      18         6         0    -3.125167    -1.341348     1.022547
      19         6         0    -2.925405     1.763421    -0.971513
      20         6         0    -2.925411     1.480941     1.363915
      21         6         0     1.338993    -0.899828    -3.163683
      22         6         0     1.503883     1.429855    -2.881897
      23         6         0    -1.503866    -0.701518    -3.139704
      24         6         0    -1.338976     1.628166    -2.857919
      25         6         0     1.338976    -1.628166     2.857919
      26         6         0     1.503866     0.701518     3.139704
      27         6         0    -1.503883    -1.429855     2.881897
      28         6         0    -1.338993     0.899828     3.163683
      29         6         0     0.960762    -2.914140    -1.787794
      30         6         0    -1.385901    -2.750442    -1.768001
      31         6         0     0.960754    -3.256349     1.041454
      32         6         0    -1.385909    -3.092652     1.061247
      33         6         0     1.385909     3.092652    -1.061247
      34         6         0    -0.960754     3.256349    -1.041454
      35         6         0     1.385901     2.750442     1.768001
      36         6         0    -0.960762     2.914140     1.787794
      37         6         0     2.543833    -0.624176    -2.398011
      38         6         0     2.543820    -1.177912     2.180056
      39         6         0     2.645758     0.815900    -2.223828
      40         6         0     2.645745     0.262164     2.354239
      41         6         0    -2.645745    -0.262164    -2.354239
      42         6         0    -2.645758    -0.815900     2.223828
      43         6         0    -2.543820     1.177912    -2.180056
      44         6         0    -2.543833     0.624176     2.398011
      45         6         0     0.563679    -2.021650    -2.864671
      46         6         0     0.886907     2.545157    -2.312295
      47         6         0    -0.886893    -1.920462    -2.852436
      48         6         0    -0.563665     2.646345    -2.300060
      49         6         0     0.563665    -2.646345     2.300060
      50         6         0     0.886893     1.920462     2.852436
      51         6         0    -0.886907    -2.545157     2.312295
      52         6         0    -0.563679     2.021650     2.864671
      53         6         0     2.117723    -2.649153    -1.052794
      54         6         0    -2.482368    -2.328262    -1.013993
      55         6         0     2.117719    -2.823766     0.390833
      56         6         0    -2.482372    -2.502875     0.429633
      57         6         0     2.482372     2.502875    -0.429633
      58         6         0    -2.117719     2.823766    -0.390833
      59         6         0     2.482368     2.328262     1.013993
      60         6         0    -2.117723     2.649153     1.052794
 SCF Done: =  -2273.521001033


 incident light, reduced masses

                      1                      2                      3
                      A                      A                      A
 Frequencies --   270.3500               271.0000              271.6800
 Red. masses --   12.0000                 12.0000               12.0000
 Frc consts  --   0.5168                 0.5192                0.5218
 IR Inten    --   0.0000                 0.0000                0.0000
  Atom  AN      X      Y      Z        X      Y      Z        X      Y      Z
     1         0.13   -0.04    0.03   -0.07   -0.03   -0.06   -0.07    0.10    0.01
     2         0.11   -0.02    0.06   -0.12   -0.04   -0.01    0.04    0.08    0.04
     3        -0.11    0.02   -0.06    0.12    0.04    0.01   -0.04   -0.08   -0.04
     4        -0.13    0.04   -0.03    0.07    0.03    0.06    0.07   -0.10   -0.01
     5        -0.06   -0.08    0.17    0.03   -0.07   -0.12   -0.01   -0.01   -0.05
     6        -0.05   -0.06    0.12    0.03   -0.05   -0.09   -0.03   -0.06   -0.08
     7         0.05    0.06   -0.12   -0.03    0.05    0.09    0.03    0.06    0.08
     8         0.06    0.08   -0.17   -0.03    0.07    0.12    0.01    0.01    0.05
     9        -0.00   -0.06   -0.06    0.05   -0.03   -0.09   -0.09    0.03   -0.04
     10        0.03    0.00   -0.07    0.04    0.06   -0.07   -0.07    0.08   -0.04
     11       -0.03   -0.00    0.07   -0.04   -0.06    0.07    0.07   -0.08    0.04
     12        0.00    0.06    0.06   -0.05    0.03    0.09    0.09   -0.03    0.04
     13        0.08   -0.06    0.03    0.02   -0.07   -0.10   -0.09    0.10    0.02
     14        0.13   -0.05    0.01   -0.08    0.02   -0.05   -0.09    0.13   -0.00
     15        0.01   -0.04    0.09   -0.11   -0.08   -0.00    0.04    0.05    0.02
     16        0.14    0.03    0.07   -0.11   -0.03   -0.01    0.10    0.09    0.08
     17       -0.14   -0.03   -0.07    0.11    0.03    0.01   -0.10   -0.09   -0.08
     18       -0.01    0.04   -0.09    0.11    0.08    0.00   -0.04   -0.05   -0.02
     19       -0.13    0.05   -0.01    0.08   -0.02    0.05    0.09   -0.13    0.00
     20       -0.08    0.06   -0.03   -0.02    0.07    0.10    0.09   -0.10   -0.02
     21       -0.02   -0.06    0.09    0.06   -0.10   -0.19   -0.04    0.01   -0.04
     22       -0.08   -0.11    0.20   -0.02   -0.08   -0.03    0.01   -0.01   -0.02
     23       -0.07   -0.05    0.01    0.04   -0.05   -0.09   -0.08   -0.07   -0.14
     24       -0.06   -0.06    0.10    0.04   -0.06    0.00    0.03   -0.09   -0.00
     25        0.06    0.06   -0.10   -0.04    0.06   -0.00   -0.03    0.09    0.00
     26        0.07    0.05   -0.01   -0.04    0.05    0.09    0.08    0.07    0.14
     27        0.08    0.11   -0.20    0.02    0.08    0.03   -0.01    0.01    0.02
     28        0.02    0.06   -0.09   -0.06    0.10    0.19    0.04   -0.01    0.04
     29        0.02   -0.07   -0.02    0.06   -0.11   -0.15   -0.10    0.07   -0.02
     30       -0.04   -0.07   -0.05    0.06   -0.02   -0.08   -0.11   -0.08   -0.11
     31        0.05    0.01   -0.07    0.00    0.05   -0.05   -0.10    0.15   -0.04
     32        0.04    0.08   -0.11    0.07    0.10   -0.04   -0.07    0.01   -0.02
     33       -0.04   -0.08    0.11   -0.07   -0.10    0.04    0.07   -0.01    0.02
     34       -0.05   -0.01    0.07   -0.00   -0.05    0.05    0.10   -0.15    0.04
     35        0.04    0.07    0.05   -0.06    0.02    0.08    0.11    0.08    0.11
     36       -0.02    0.07    0.02   -0.06    0.11    0.15    0.10   -0.07    0.02
     37       -0.00   -0.06    0.08    0.04   -0.08   -0.12   -0.05    0.04   -0.00
     38        0.12    0.01    0.00   -0.09    0.04   -0.05   -0.02    0.10    0.02
     39       -0.05   -0.07    0.13   -0.04   -0.08   -0.04   -0.00    0.03    0.01
     40        0.13    0.02    0.05   -0.09    0.02    0.01    0.07    0.09    0.09
     41       -0.13   -0.02   -0.05    0.09   -0.02   -0.01   -0.07   -0.09   -0.09
     42        0.05    0.07   -0.13    0.04    0.08    0.04    0.00   -0.03   -0.01
     43       -0.12   -0.01   -0.00    0.09   -0.04    0.05    0.02   -0.10   -0.02
     44        0.00    0.06   -0.08   -0.04    0.08    0.12    0.05   -0.04    0.00
     45       -0.02   -0.06    0.01    0.06   -0.13   -0.20   -0.07    0.00   -0.07
     46       -0.07   -0.12    0.17   -0.03   -0.11    0.04    0.04   -0.03    0.01
     47       -0.04   -0.06   -0.02    0.04   -0.08   -0.14   -0.09   -0.08   -0.14
     48       -0.05   -0.09    0.13    0.00   -0.08    0.05    0.05   -0.12    0.03
     49        0.05    0.09   -0.13   -0.00    0.08   -0.05   -0.05    0.12   -0.03
     50        0.04    0.06    0.02   -0.04    0.08    0.14    0.09    0.08    0.14
     51        0.07    0.12   -0.17    0.03    0.11   -0.04   -0.04    0.03   -0.01
     52        0.02    0.06   -0.01   -0.06    0.13    0.20    0.07   -0.00    0.07
     53        0.06   -0.07   -0.01    0.04   -0.08   -0.10   -0.13    0.14    0.01
     54       -0.07   -0.03   -0.08    0.11    0.05   -0.02   -0.13   -0.11   -0.08
     55        0.09   -0.05   -0.01   -0.01   -0.01   -0.07   -0.13    0.18   -0.01
     56        0.00    0.04   -0.08    0.10    0.09   -0.03   -0.09   -0.07   -0.04
     57       -0.00   -0.04    0.08   -0.10   -0.09    0.03    0.09    0.07    0.04
     58       -0.09    0.05    0.01    0.01    0.01    0.07    0.13   -0.18    0.01
     59        0.07    0.03    0.08   -0.11   -0.05    0.02    0.13    0.11    0.08
     60       -0.06    0.07    0.01   -0.04    0.08    0.10    0.13   -0.14   -0.01
                      4                      5                      6
                      A                      A                      A
 Frequencies --   272.7000               272.9800              349.8800
 Red. masses --   12.0000                 12.0000               12.0000
 Frc consts  --   0.5258                 0.5268                0.8655
 IR Inten    --   0.0000                 0.0000                0.0000
  Atom  AN      X      Y      Z        X      Y      Z        X      Y      Z
     1         0.15   -0.03    0.01    0.10    0.02   -0.08    0.10   -0.02    0.02
     2         0.13   -0.03    0.00    0.13    0.03   -0.07    0.11    0.00    0.02
     3        -0.13    0.03   -0.00   -0.13   -0.03    0.07    0.11    0.00    0.02
     4        -0.15    0.03   -0.01   -0.10   -0.02    0.08    0.10   -0.02    0.02
     5         0.01    0.01   -0.08    0.09   -0.02    0.05   -0.08   -0.02    0.20
     6        -0.03    0.02   -0.09    0.09   -0.04    0.15   -0.04   -0.01    0.04
     7         0.03   -0.02    0.09   -0.09    0.04   -0.15   -0.04   -0.01    0.04
     8        -0.01   -0.01    0.08   -0.09    0.02   -0.05   -0.08   -0.02    0.20
     9         0.03    0.23    0.04    0.00    0.00   -0.00    0.00   -0.09   -0.09
     10        0.04    0.23    0.02   -0.05    0.02   -0.02    0.02    0.13   -0.06
     11       -0.04   -0.23   -0.02    0.05   -0.02    0.02    0.02    0.13   -0.06
     12       -0.03   -0.23   -0.04   -0.00   -0.00    0.00    0.00   -0.09   -0.09
     13        0.10    0.02   -0.02    0.14   -0.02   -0.09    0.02   -0.04    0.03
     14        0.12    0.00    0.04   -0.01    0.05   -0.10    0.08   -0.02    0.00
     15        0.06   -0.06   -0.02    0.18    0.06   -0.08    0.04    0.04    0.04
     16        0.08   -0.07    0.02    0.04    0.03   -0.08    0.08   -0.00   -0.01
     17       -0.08    0.07   -0.02   -0.04   -0.03    0.08    0.08   -0.00   -0.01
     18       -0.06    0.06    0.02   -0.18   -0.06    0.08    0.04    0.04    0.04
     19       -0.12    0.00   -0.04    0.01   -0.05    0.10    0.08   -0.02    0.00
     20       -0.10   -0.02    0.02   -0.14    0.02    0.09    0.02   -0.04    0.03
     21        0.05    0.03   -0.07    0.10   -0.02   -0.01   -0.09   -0.01    0.16
     22        0.03   -0.03   -0.07    0.11   -0.00   -0.01   -0.10   -0.01    0.17
     23       -0.05    0.05   -0.07    0.06   -0.01    0.13   -0.03   -0.05   -0.06
     24       -0.07    0.00   -0.09    0.09   -0.08    0.16   -0.01    0.05   -0.01
     25        0.07   -0.00    0.09   -0.09    0.08   -0.16   -0.01    0.05   -0.01
     26        0.05   -0.05    0.07   -0.06    0.01   -0.13   -0.03   -0.05   -0.06
     27       -0.03    0.03    0.07   -0.11    0.00    0.01   -0.10   -0.01    0.17
     28       -0.05   -0.03    0.07   -0.10    0.02    0.01   -0.09   -0.01    0.16
     29        0.02    0.15    0.03    0.04   -0.01   -0.02    0.03   -0.12   -0.07
     30        0.03    0.17    0.03   -0.00    0.01    0.05   -0.04   -0.12   -0.12
     31        0.03    0.14    0.02   -0.05    0.09   -0.08   -0.02    0.15   -0.07
     32        0.04    0.18    0.00   -0.08   -0.02    0.00    0.05    0.15   -0.04
     33       -0.04   -0.18   -0.00    0.08    0.02    0.00    0.05    0.15   -0.04
     34       -0.03   -0.14   -0.02    0.05   -0.09    0.08   -0.02    0.15   -0.07
     35       -0.03   -0.17   -0.03    0.00   -0.01   -0.05   -0.04   -0.12   -0.12
     36       -0.02   -0.15   -0.03   -0.04    0.01    0.02    0.03   -0.12   -0.07
     37        0.08   -0.00   -0.06    0.16   -0.01   -0.10   -0.12   -0.01    0.15
     38        0.11   -0.03    0.08   -0.07    0.06   -0.14    0.03    0.00   -0.01
     39        0.06   -0.02   -0.05    0.18    0.02   -0.09   -0.12   -0.01    0.15
     40        0.09   -0.04    0.07   -0.05    0.03   -0.13    0.02   -0.02   -0.03
     41       -0.09    0.04   -0.07    0.05   -0.03    0.13    0.02   -0.02   -0.03
     42       -0.06    0.02    0.05   -0.18   -0.02    0.09   -0.12   -0.01    0.15
     43       -0.11    0.03   -0.08    0.07   -0.06    0.14    0.03    0.00   -0.01
     44       -0.08    0.00    0.06   -0.16    0.01    0.10   -0.12   -0.01    0.15
     45        0.02    0.08   -0.01    0.06    0.00    0.01   -0.02   -0.11   -0.06
     46       -0.02   -0.09   -0.03    0.08   -0.03    0.03   -0.01    0.12   -0.01
     47        0.01    0.10   -0.01    0.05    0.00    0.07   -0.05   -0.12   -0.13
     48       -0.03   -0.07   -0.05    0.08   -0.09    0.11   -0.03    0.13   -0.07
     49        0.03    0.07    0.05   -0.08    0.09   -0.11   -0.03    0.13   -0.07
     50       -0.01   -0.10    0.01   -0.05    0.00   -0.07   -0.05   -0.12   -0.13
     51        0.02    0.09    0.03   -0.08    0.03   -0.03   -0.01    0.12   -0.01
     52       -0.02   -0.08    0.01   -0.06   -0.00   -0.01   -0.02   -0.11   -0.06
     53        0.04    0.08    0.02    0.06    0.01   -0.07    0.03   -0.07   -0.03
     54        0.01    0.13    0.01   -0.04   -0.03    0.05    0.04    0.00   -0.04
     55        0.06    0.07    0.02   -0.02    0.06   -0.07    0.04    0.00   -0.03
     56        0.02    0.14    0.01   -0.12   -0.05    0.05    0.06    0.08   -0.02
     57       -0.02   -0.14   -0.01    0.12    0.05   -0.05    0.06    0.08   -0.02
     58       -0.06   -0.07   -0.02    0.02   -0.06    0.07    0.04    0.00   -0.03
     59       -0.01   -0.13   -0.01    0.04    0.03   -0.05    0.04    0.00   -0.04
     60       -0.04   -0.08   -0.02   -0.06   -0.01    0.07    0.03   -0.07   -0.03
                      7                      8                      9
                      A                      A                      A
 Frequencies --   350.7200               353.0000              354.7900
 Red. masses --   12.0000                 12.0000               12.0000
 Frc consts  --   0.8697                 0.8810                0.8900
 IR Inten    --   0.0000                 0.0000                0.0000
  Atom  AN      X      Y      Z        X      Y      Z        X      Y      Z
     1        -0.12    0.10    0.01   -0.16    0.03   -0.00    0.10   -0.01    0.06
     2         0.14    0.09    0.01   -0.15   -0.00   -0.01    0.05   -0.02    0.01
     3         0.14    0.09    0.01   -0.15   -0.00   -0.01    0.05   -0.02    0.01
     4        -0.12    0.10    0.01   -0.16    0.03   -0.00    0.10   -0.01    0.06
     5        -0.00   -0.03   -0.01    0.06   -0.01    0.06    0.04    0.01   -0.14
     6        -0.00   -0.04   -0.01    0.09   -0.03    0.27    0.04   -0.03   -0.09
     7        -0.00   -0.04   -0.01    0.09   -0.03    0.27    0.04   -0.03   -0.09
     8        -0.00   -0.03   -0.01    0.06   -0.01    0.06    0.04    0.01   -0.14
     9        -0.01   -0.11   -0.03   -0.01   -0.10   -0.07   -0.06    0.09   -0.00
     10       -0.01   -0.12    0.01   -0.00    0.07   -0.05   -0.02    0.10   -0.01
     11       -0.01   -0.12    0.01   -0.00    0.07   -0.05   -0.02    0.10   -0.01
     12       -0.01   -0.11   -0.03   -0.01   -0.10   -0.07   -0.06    0.09   -0.00
     13       -0.15    0.10    0.05   -0.06    0.01   -0.03   -0.08    0.08    0.07
     14       -0.15    0.11   -0.02   -0.11    0.06    0.01    0.17   -0.06    0.10
     15        0.17    0.09   -0.03   -0.04    0.02   -0.04   -0.04   -0.04    0.00
     16        0.16    0.08    0.04   -0.10   -0.04    0.00    0.03   -0.05    0.02
     17        0.16    0.08    0.04   -0.10   -0.04    0.00    0.03   -0.05    0.02
     18        0.17    0.09   -0.03   -0.04    0.02   -0.04   -0.04   -0.04    0.00
     19       -0.15    0.11   -0.02   -0.11    0.06    0.01    0.17   -0.06    0.10
     20       -0.15    0.10    0.05   -0.06    0.01   -0.03   -0.08    0.08    0.07
     21       -0.01   -0.02   -0.05    0.05   -0.04   -0.05   -0.00   -0.00   -0.07
     22        0.01   -0.04    0.04    0.07    0.06   -0.06    0.01    0.03   -0.07
     23        0.00   -0.03   -0.06    0.09   -0.01    0.22    0.01   -0.06   -0.10
     24       -0.01   -0.04    0.05    0.07   -0.04    0.19    0.11   -0.07    0.08
     25       -0.01   -0.04    0.05    0.07   -0.04    0.19    0.11   -0.07    0.08
     26        0.00   -0.03   -0.06    0.09   -0.01    0.22    0.01   -0.06   -0.10
     27        0.01   -0.04    0.04    0.07    0.06   -0.06    0.01    0.03   -0.07
     28       -0.01   -0.02   -0.05    0.05   -0.04   -0.05   -0.00   -0.00   -0.07
     29       -0.05   -0.05   -0.05    0.02   -0.11   -0.10   -0.08    0.16    0.06
     30        0.02   -0.07   -0.06   -0.03   -0.10   -0.04   -0.09   -0.08   -0.09
     31       -0.03   -0.08    0.05   -0.02    0.10   -0.02   -0.02    0.08    0.01
     32        0.03   -0.08    0.04    0.03    0.11   -0.07   -0.02    0.01    0.00
     33        0.03   -0.08    0.04    0.03    0.11   -0.07   -0.02    0.01    0.00
     34       -0.03   -0.08    0.05   -0.02    0.10   -0.02   -0.02    0.08    0.01
     35        0.02   -0.07   -0.06   -0.03   -0.10   -0.04   -0.09   -0.08   -0.09
     36       -0.05   -0.05   -0.05    0.02   -0.11   -0.10   -0.08    0.16    0.06
     37       -0.04    0.04    0.00    0.06   -0.01   -0.08   -0.06    0.02    0.01
     38       -0.04    0.03    0.01    0.04   -0.01    0.12    0.22   -0.11    0.16
     39        0.05    0.03    0.00    0.07    0.04   -0.09   -0.04    0.01   -0.02
     40        0.04    0.03   -0.00    0.05   -0.01    0.13    0.12   -0.06    0.06
     41        0.04    0.03   -0.00    0.05   -0.01    0.13    0.12   -0.06    0.06
     42        0.05    0.03    0.00    0.07    0.04   -0.09   -0.04    0.01   -0.02
     43       -0.04    0.03    0.01    0.04   -0.01    0.12    0.22   -0.11    0.16
     44       -0.04    0.04    0.00    0.06   -0.01   -0.08   -0.06    0.02    0.01
     45       -0.01   -0.07   -0.11    0.04   -0.08   -0.07   -0.04    0.01   -0.05
     46       -0.00   -0.10    0.10    0.06    0.10   -0.07    0.00    0.02   -0.01
     47       -0.01   -0.08   -0.12    0.03   -0.06    0.02   -0.06   -0.10   -0.15
     48       -0.01   -0.11    0.10    0.03    0.07    0.01    0.02    0.00    0.03
     49       -0.01   -0.11    0.10    0.03    0.07    0.01    0.02    0.00    0.03
     50       -0.01   -0.08   -0.12    0.03   -0.06    0.02   -0.06   -0.10   -0.15
     51       -0.00   -0.10    0.10    0.06    0.10   -0.07    0.00    0.02   -0.01
     52       -0.01   -0.07   -0.11    0.04   -0.08   -0.07   -0.04    0.01   -0.05
     53       -0.15    0.11    0.03   -0.03   -0.01   -0.05   -0.12    0.17    0.09
     54        0.15    0.08    0.02   -0.07   -0.06   -0.04   -0.09   -0.11   -0.03
     55       -0.15    0.11    0.00   -0.06    0.08   -0.03   -0.01    0.08    0.06
     56        0.16    0.08   -0.01   -0.02    0.02   -0.05   -0.08   -0.09   -0.00
     57        0.16    0.08   -0.01   -0.02    0.02   -0.05   -0.08   -0.09   -0.00
     58       -0.15    0.11    0.00   -0.06    0.08   -0.03   -0.01    0.08    0.06
     59        0.15    0.08    0.02   -0.07   -0.06   -0.04   -0.09   -0.11   -0.03
     60       -0.15    0.11    0.03   -0.03   -0.01   -0.05   -0.12    0.17    0.09
                      10                      11                      12
                      A                      A                      A
 Frequencies --   355.5500               356.1200              359.4300
 Red. masses --   12.0000                 12.0000               12.0000
 Frc consts  --   0.8938                 0.8966                0.9134
 IR Inten    --   0.0000                 0.0000                0.0000
  Atom  AN      X      Y      Z        X      Y      Z        X      Y      Z
     1         0.03    0.01   -0.01    0.01   -0.00   -0.03    0.18   -0.01   -0.05
     2         0.04   -0.01    0.07   -0.07   -0.00   -0.02    0.20   -0.01   -0.04
     3         0.04   -0.01    0.07   -0.07   -0.00   -0.02    0.20   -0.01   -0.04
     4         0.03    0.01   -0.01    0.01   -0.00   -0.03    0.18   -0.01   -0.05
     5         0.01   -0.04   -0.09   -0.01   -0.07    0.06    0.00   -0.01    0.15
     6         0.02    0.04   -0.06   -0.01   -0.06    0.07    0.01   -0.00    0.11
     7         0.02    0.04   -0.06   -0.01   -0.06    0.07    0.01   -0.00    0.11
     8         0.01   -0.04   -0.09   -0.01   -0.07    0.06    0.00   -0.01    0.15
     9         0.02   -0.01   -0.01    0.03    0.23    0.04   -0.05   -0.04    0.01
     10       -0.06    0.01   -0.01    0.02    0.23    0.03   -0.06   -0.03    0.01
     11       -0.06    0.01   -0.01    0.02    0.23    0.03   -0.06   -0.03    0.01
     12        0.02   -0.01   -0.01    0.03    0.23    0.04   -0.05   -0.04    0.01
     13        0.04   -0.02   -0.05    0.10   -0.05   -0.06    0.15   -0.01   -0.07
     14       -0.03    0.06   -0.03   -0.02    0.01   -0.03   -0.01    0.08   -0.04
     15       -0.14   -0.09    0.09   -0.03    0.00   -0.00    0.15   -0.00   -0.06
     16        0.17    0.04    0.12   -0.09   -0.01   -0.04    0.00   -0.06   -0.05
     17        0.17    0.04    0.12   -0.09   -0.01   -0.04    0.00   -0.06   -0.05
     18       -0.14   -0.09    0.09   -0.03    0.00   -0.00    0.15   -0.00   -0.06
     19       -0.03    0.06   -0.03   -0.02    0.01   -0.03   -0.01    0.08   -0.04
     20        0.04   -0.02   -0.05    0.10   -0.05   -0.06    0.15   -0.01   -0.07
     21        0.05   -0.07   -0.15    0.09   -0.08   -0.13    0.02    0.01    0.09
     22       -0.08   -0.07    0.06   -0.07   -0.11    0.15    0.03   -0.02    0.06
     23        0.10    0.05    0.09   -0.07   -0.04   -0.09   -0.01    0.01    0.05
     24       -0.02    0.09   -0.10    0.03   -0.09    0.13   -0.04    0.03   -0.01
     25       -0.02    0.09   -0.10    0.03   -0.09    0.13   -0.04    0.03   -0.01
     26        0.10    0.05    0.09   -0.07   -0.04   -0.09   -0.01    0.01    0.05
     27       -0.08   -0.07    0.06   -0.07   -0.11    0.15    0.03   -0.02    0.06
     28        0.05   -0.07   -0.15    0.09   -0.08   -0.13    0.02    0.01    0.09
     29        0.05   -0.07   -0.07    0.02    0.06   -0.03   -0.05    0.08    0.07
     30        0.06    0.05    0.05    0.04    0.12    0.00   -0.08   -0.12   -0.05
     31       -0.09    0.15   -0.06   -0.01    0.10    0.05   -0.07    0.13   -0.04
     32       -0.10   -0.12    0.05    0.01    0.08    0.05   -0.08   -0.12    0.04
     33       -0.10   -0.12    0.05    0.01    0.08    0.05   -0.08   -0.12    0.04
     34       -0.09    0.15   -0.06   -0.01    0.10    0.05   -0.07    0.13   -0.04
     35        0.06    0.05    0.05    0.04    0.12    0.00   -0.08   -0.12   -0.05
     36        0.05   -0.07   -0.07    0.02    0.06   -0.03   -0.05    0.08    0.07
     37        0.01   -0.05   -0.06    0.11   -0.07   -0.10    0.15   -0.01   -0.07
     38        0.04    0.06    0.00   -0.04   -0.04   -0.01   -0.08    0.04   -0.05
     39       -0.12   -0.07    0.08   -0.01   -0.07    0.02    0.15    0.01   -0.08
     40        0.17    0.05    0.14   -0.11   -0.04   -0.08   -0.06    0.01   -0.03
     41        0.17    0.05    0.14   -0.11   -0.04   -0.08   -0.06    0.01   -0.03
     42       -0.12   -0.07    0.08   -0.01   -0.07    0.02    0.15    0.01   -0.08
     43        0.04    0.06    0.00   -0.04   -0.04   -0.01   -0.08    0.04   -0.05
     44        0.01   -0.05   -0.06    0.11   -0.07   -0.10    0.15   -0.01   -0.07
     45        0.05   -0.09   -0.11    0.04   -0.05   -0.15   -0.04    0.07    0.11
     46       -0.08   -0.06    0.04   -0.04   -0.11    0.17   -0.05   -0.06    0.05
     47        0.06    0.02    0.03   -0.00   -0.01   -0.11   -0.04   -0.00    0.04
     48       -0.07    0.12   -0.08    0.00   -0.10    0.16   -0.05    0.04   -0.02
     49       -0.07    0.12   -0.08    0.00   -0.10    0.16   -0.05    0.04   -0.02
     50        0.06    0.02    0.03   -0.00   -0.01   -0.11   -0.04   -0.00    0.04
     51       -0.08   -0.06    0.04   -0.04   -0.11    0.17   -0.05   -0.06    0.05
     52        0.05   -0.09   -0.11    0.04   -0.05   -0.15   -0.04    0.07    0.11
     53        0.02    0.00   -0.04    0.04   -0.00   -0.03   -0.02    0.10   -0.01
     54        0.07    0.02    0.08    0.02    0.06   -0.01   -0.10   -0.15   -0.06
     55       -0.08    0.11   -0.04   -0.02    0.04   -0.01   -0.09    0.17   -0.04
     56       -0.12   -0.12    0.07    0.02    0.06   -0.00   -0.05   -0.12   -0.02
     57       -0.12   -0.12    0.07    0.02    0.06   -0.00   -0.05   -0.12   -0.02
     58       -0.08    0.11   -0.04   -0.02    0.04   -0.01   -0.09    0.17   -0.04
     59        0.07    0.02    0.08    0.02    0.06   -0.01   -0.10   -0.15   -0.06
     60        0.02    0.00   -0.04    0.04   -0.00   -0.03   -0.02    0.10   -0.01
                      13                      14                      15
                      A                      A                      A
 Frequencies --   418.6900               419.2100              419.6800
 Red. masses --   12.0000                 12.0000               12.0000
 Frc consts  --   1.2394                 1.2425                1.2453
 IR Inten    --   0.0000                 0.0000                0.0000
  Atom  AN      X      Y      Z        X      Y      Z        X      Y      Z
     1         0.04   -0.02    0.14   -0.01   -0.04    0.09   -0.05   -0.10   -0.05
     2         0.04   -0.05    0.14    0.01   -0.02   -0.08    0.03   -0.11   -0.01
     3         0.04   -0.05    0.14    0.01   -0.02   -0.08    0.03   -0.11   -0.01
     4         0.04   -0.02    0.14   -0.01   -0.04    0.09   -0.05   -0.10   -0.05
     5        -0.10    0.03    0.01   -0.00    0.00    0.00    0.02    0.19    0.02
     6        -0.14    0.01    0.08    0.00    0.07    0.01    0.01    0.06    0.00
     7        -0.14    0.01    0.08    0.00    0.07    0.01    0.01    0.06    0.00
     8        -0.10    0.03    0.01   -0.00    0.00    0.00    0.02    0.19    0.02
     9         0.13    0.05   -0.13    0.06    0.00   -0.01    0.04    0.03    0.01
     10        0.12   -0.03   -0.13   -0.05    0.00   -0.00   -0.05    0.04    0.04
     11        0.12   -0.03   -0.13   -0.05    0.00   -0.00   -0.05    0.04    0.04
     12        0.13    0.05   -0.13    0.06    0.00   -0.01    0.04    0.03    0.01
     13        0.05    0.08    0.06   -0.02   -0.02    0.12   -0.04    0.02   -0.08
     14       -0.04   -0.01    0.11   -0.02   -0.04    0.13   -0.09   -0.14   -0.07
     15        0.04   -0.11    0.06    0.02   -0.00   -0.12    0.03    0.01    0.06
     16       -0.03   -0.05    0.12    0.01   -0.01   -0.13    0.08   -0.16    0.01
     17       -0.03   -0.05    0.12    0.01   -0.01   -0.13    0.08   -0.16    0.01
     18        0.04   -0.11    0.06    0.02   -0.00   -0.12    0.03    0.01    0.06
     19       -0.04   -0.01    0.11   -0.02   -0.04    0.13   -0.09   -0.14   -0.07
     20        0.05    0.08    0.06   -0.02   -0.02    0.12   -0.04    0.02   -0.08
     21       -0.02    0.07   -0.05    0.08    0.00    0.03    0.00    0.18   -0.00
     22       -0.01   -0.02   -0.06   -0.08    0.01   -0.03    0.02    0.18    0.05
     23       -0.14    0.02    0.06    0.10    0.04   -0.03    0.07   -0.03   -0.06
     24       -0.14   -0.01    0.07   -0.11    0.04    0.04   -0.05   -0.03    0.04
     25       -0.14   -0.01    0.07   -0.11    0.04    0.04   -0.05   -0.03    0.04
     26       -0.14    0.02    0.06    0.10    0.04   -0.03    0.07   -0.03   -0.06
     27       -0.01   -0.02   -0.06   -0.08    0.01   -0.03    0.02    0.18    0.05
     28       -0.02    0.07   -0.05    0.08    0.00    0.03    0.00    0.18   -0.00
     29        0.09    0.12   -0.12    0.10   -0.04    0.07    0.02    0.02   -0.09
     30        0.06    0.02   -0.05    0.12    0.03   -0.10    0.08   -0.02    0.01
     31        0.06   -0.02   -0.06   -0.11    0.02    0.10   -0.08    0.00    0.01
     32        0.09   -0.10   -0.11   -0.10   -0.02   -0.08   -0.03    0.01    0.13
     33        0.09   -0.10   -0.11   -0.10   -0.02   -0.08   -0.03    0.01    0.13
     34        0.06   -0.02   -0.06   -0.11    0.02    0.10   -0.08    0.00    0.01
     35        0.06    0.02   -0.05    0.12    0.03   -0.10    0.08   -0.02    0.01
     36        0.09    0.12   -0.12    0.10   -0.04    0.07    0.02    0.02   -0.09
     37       -0.01    0.04    0.01    0.02   -0.01    0.07   -0.01    0.14   -0.01
     38       -0.14   -0.01    0.11   -0.05   -0.01    0.07   -0.05   -0.16   -0.04
     39        0.00   -0.02    0.01   -0.02    0.01   -0.07    0.02    0.14    0.03
     40       -0.13   -0.02    0.11    0.03    0.00   -0.07    0.05   -0.17   -0.03
     41       -0.13   -0.02    0.11    0.03    0.00   -0.07    0.05   -0.17   -0.03
     42        0.00   -0.02    0.01   -0.02    0.01   -0.07    0.02    0.14    0.03
     43       -0.14   -0.01    0.11   -0.05   -0.01    0.07   -0.05   -0.16   -0.04
     44       -0.01    0.04    0.01    0.02   -0.01    0.07   -0.01    0.14   -0.01
     45       -0.01    0.09   -0.11    0.17   -0.03    0.02    0.05    0.10   -0.05
     46        0.00   -0.04   -0.10   -0.17   -0.01   -0.03   -0.04    0.10    0.10
     47       -0.04    0.05   -0.04    0.18    0.04   -0.05    0.07   -0.00   -0.03
     48       -0.03   -0.03   -0.04   -0.17    0.05    0.05   -0.06    0.01    0.05
     49       -0.03   -0.03   -0.04   -0.17    0.05    0.05   -0.06    0.01    0.05
     50       -0.04    0.05   -0.04    0.18    0.04   -0.05    0.07   -0.00   -0.03
     51        0.00   -0.04   -0.10   -0.17   -0.01   -0.03   -0.04    0.10    0.10
     52       -0.01    0.09   -0.11    0.17   -0.03    0.02    0.05    0.10   -0.05
     53        0.06    0.10   -0.03    0.03   -0.04    0.16   -0.01   -0.03   -0.11
     54        0.05   -0.05    0.00    0.05    0.01   -0.17    0.08   -0.12    0.07
     55        0.04    0.02   -0.02   -0.05   -0.03    0.17   -0.09   -0.08   -0.09
     56        0.06   -0.11   -0.03   -0.03   -0.01   -0.17   -0.01   -0.04    0.11
     57        0.06   -0.11   -0.03   -0.03   -0.01   -0.17   -0.01   -0.04    0.11
     58        0.04    0.02   -0.02   -0.05   -0.03    0.17   -0.09   -0.08   -0.09
     59        0.05   -0.05    0.00    0.05    0.01   -0.17    0.08   -0.12    0.07
     60        0.06    0.10   -0.03    0.03   -0.04    0.16   -0.01   -0.03   -0.11
                      16                      17                      18
                      A                      A                      A
 Frequencies --   420.3500               420.7900              429.4200
 Red. masses --   12.0000                 12.0000               12.0000
 Frc consts  --   1.2493                 1.2519                1.3037
 IR Inten    --   0.0000                 0.0000                0.0000
  Atom  AN      X      Y      Z        X      Y      Z        X      Y      Z
     1         0.04    0.04   -0.12   -0.05   -0.13   -0.03   -0.10    0.08   -0.01
     2         0.03    0.00   -0.13    0.03   -0.14   -0.02    0.17    0.05    0.03
     3         0.03    0.00   -0.13    0.03   -0.14   -0.02   -0.17   -0.05   -0.03
     4         0.04    0.04   -0.12   -0.05   -0.13   -0.03    0.10   -0.08    0.01
     5        -0.14    0.01   -0.09    0.01    0.10    0.01   -0.00   -0.05    0.02
     6        -0.11    0.00    0.00    0.02    0.19    0.02    0.01    0.00    0.04
     7        -0.11    0.00    0.00    0.02    0.19    0.02   -0.01   -0.00   -0.04
     8        -0.14    0.01   -0.09    0.01    0.10    0.01    0.00    0.05   -0.02
     9         0.14   -0.07    0.11   -0.05    0.04   -0.01    0.03    0.09    0.06
     10        0.15    0.01    0.12    0.05    0.04    0.03    0.01   -0.14    0.04
     11        0.15    0.01    0.12    0.05    0.04    0.03   -0.01    0.14   -0.04
     12        0.14   -0.07    0.11   -0.05    0.04   -0.01   -0.03   -0.09   -0.06
     13       -0.03    0.04   -0.10   -0.10   -0.15   -0.02   -0.05    0.04   -0.01
     14        0.06    0.10   -0.03   -0.04   -0.02    0.03   -0.18    0.11   -0.05
     15       -0.04   -0.01   -0.12    0.07   -0.16   -0.03    0.05    0.01    0.01
     16        0.03   -0.09   -0.06    0.04   -0.02   -0.04    0.20    0.05    0.07
     17        0.03   -0.09   -0.06    0.04   -0.02   -0.04   -0.20   -0.05   -0.07
     18       -0.04   -0.01   -0.12    0.07   -0.16   -0.03   -0.05   -0.01   -0.01
     19        0.06    0.10   -0.03   -0.04   -0.02    0.03    0.18   -0.11    0.05
     20       -0.03    0.04   -0.10   -0.10   -0.15   -0.02    0.05   -0.04    0.01
     21       -0.14   -0.00   -0.07   -0.09    0.01   -0.06    0.08   -0.07   -0.17
     22       -0.14    0.02   -0.08    0.08   -0.01    0.05   -0.09   -0.09    0.16
     23       -0.03   -0.05    0.06    0.01    0.18   -0.01   -0.01    0.01    0.02
     24       -0.02    0.04    0.07    0.02    0.17    0.05    0.02    0.02    0.00
     25       -0.02    0.04    0.07    0.02    0.17    0.05   -0.02   -0.02   -0.00
     26       -0.03   -0.05    0.06    0.01    0.18   -0.01    0.01   -0.01   -0.02
     27       -0.14    0.02   -0.08    0.08   -0.01    0.05    0.09    0.09   -0.16
     28       -0.14   -0.00   -0.07   -0.09    0.01   -0.06   -0.08    0.07    0.17
     29        0.07   -0.03    0.04   -0.10    0.00   -0.03    0.01   -0.00   -0.03
     30        0.10   -0.12    0.10   -0.03    0.03   -0.08    0.07    0.17    0.11
     31        0.11    0.08    0.13    0.03    0.01    0.09    0.04   -0.23    0.09
     32        0.07    0.01    0.03    0.10   -0.01    0.04    0.03    0.00   -0.01
     33        0.07    0.01    0.03    0.10   -0.01    0.04   -0.03    0.00    0.01
     34        0.11    0.08    0.13    0.03    0.01    0.09   -0.04    0.23   -0.09
     35        0.10   -0.12    0.10   -0.03    0.03   -0.08   -0.07   -0.17   -0.11
     36        0.07   -0.03    0.04   -0.10    0.00   -0.03   -0.01    0.00    0.03
     37       -0.14    0.02   -0.10   -0.07   -0.14   -0.04    0.06   -0.04   -0.10
     38       -0.01    0.03    0.00   -0.00    0.11    0.01   -0.05    0.04   -0.01
     39       -0.15    0.02   -0.11    0.05   -0.15   -0.01   -0.05   -0.04    0.07
     40       -0.02   -0.02   -0.01    0.03    0.11    0.01    0.07    0.03    0.03
     41       -0.02   -0.02   -0.01    0.03    0.11    0.01   -0.07   -0.03   -0.03
     42       -0.15    0.02   -0.11    0.05   -0.15   -0.01    0.05    0.04   -0.07
     43       -0.01    0.03    0.00   -0.00    0.11    0.01    0.05   -0.04    0.01
     44       -0.14    0.02   -0.10   -0.07   -0.14   -0.04   -0.06    0.04    0.10
     45       -0.03   -0.05    0.03   -0.10    0.04   -0.06    0.05   -0.04   -0.11
     46       -0.03    0.03    0.03    0.10    0.01    0.07   -0.05   -0.01    0.05
     47       -0.01   -0.07    0.11   -0.06    0.11   -0.05    0.05    0.07    0.06
     48        0.00    0.04    0.12    0.08    0.09    0.09   -0.04    0.14   -0.07
     49        0.00    0.04    0.12    0.08    0.09    0.09    0.04   -0.14    0.07
     50       -0.01   -0.07    0.11   -0.06    0.11   -0.05   -0.05   -0.07   -0.06
     51       -0.03    0.03    0.03    0.10    0.01    0.07    0.05    0.01   -0.05
     52       -0.03   -0.05    0.03   -0.10    0.04   -0.06   -0.05    0.04    0.11
     53        0.06    0.03    0.01   -0.10   -0.10    0.02   -0.06    0.05    0.01
     54        0.06   -0.10    0.01    0.00   -0.05   -0.06   -0.04    0.03    0.01
     55        0.08    0.10    0.05   -0.01   -0.06    0.05   -0.10    0.05    0.00
     56        0.05   -0.03   -0.01    0.09   -0.10   -0.04    0.01    0.03   -0.01
     57        0.05   -0.03   -0.01    0.09   -0.10   -0.04   -0.01   -0.03    0.01
     58        0.08    0.10    0.05   -0.01   -0.06    0.05    0.10   -0.05   -0.00
     59        0.06   -0.10    0.01    0.00   -0.05   -0.06    0.04   -0.03   -0.01
     60        0.06    0.03    0.01   -0.10   -0.10    0.02    0.06   -0.05   -0.01
                      19                      20                      21
                      A                      A                      A
 Frequencies --   431.0400               433.1900              433.4700
 Red. masses --   12.0000                 12.0000               12.0000
 Frc consts  --   1.3136                 1.3268                1.3285
 IR Inten    --   0.0000                 0.0000                0.0000
  Atom  AN      X      Y      Z        X      Y      Z        X      Y      Z
     1         0.00   -0.00   -0.02   -0.14    0.01    0.00   -0.18    0.07    0.03
     2         0.03    0.01   -0.01   -0.18   -0.01    0.03    0.04    0.05   -0.01
     3        -0.03   -0.01    0.01    0.18    0.01   -0.03   -0.04   -0.05    0.01
     4        -0.00    0.00    0.02    0.14   -0.01   -0.00    0.18   -0.07   -0.03
     5        -0.06    0.00   -0.01    0.04    0.01   -0.18    0.00    0.01   -0.05
     6        -0.06    0.03   -0.24    0.01   -0.01   -0.07   -0.01    0.05   -0.07
     7         0.06   -0.03    0.24   -0.01    0.01    0.07    0.01   -0.05    0.07
     8         0.06    0.00    0.01   -0.04   -0.01    0.18   -0.00   -0.01    0.05
     9         0.03    0.16    0.04   -0.01    0.03    0.05    0.01   -0.15   -0.08
     10       -0.01    0.11    0.01   -0.00   -0.12    0.01    0.02    0.10   -0.05
     11        0.01   -0.11   -0.01    0.00    0.12   -0.01   -0.02   -0.10    0.05
     12       -0.03   -0.16   -0.04    0.01   -0.03   -0.05   -0.01    0.15    0.08
     13        0.10   -0.09   -0.03    0.01   -0.02   -0.03   -0.17    0.07    0.06
     14       -0.07    0.03   -0.06   -0.01   -0.04    0.01   -0.05    0.01    0.03
     15        0.10    0.08    0.01   -0.12   -0.03    0.03    0.17    0.08   -0.06
     16       -0.02    0.01   -0.04    0.04    0.05    0.06    0.01    0.02   -0.01
     17        0.02   -0.01    0.04   -0.04   -0.05   -0.06   -0.01   -0.02    0.01
     18       -0.10   -0.08   -0.01    0.12    0.03   -0.03   -0.17   -0.08    0.06
     19        0.07   -0.03    0.06    0.01    0.04   -0.01    0.05   -0.01   -0.03
     20       -0.10    0.09    0.03   -0.01    0.02    0.03    0.17   -0.07   -0.06
     21       -0.06    0.01    0.07    0.07    0.01   -0.12   -0.02    0.01    0.01
     22       -0.09   -0.04    0.11    0.02   -0.02   -0.06    0.03   -0.02   -0.03
     23       -0.02   -0.00   -0.12   -0.04    0.02   -0.05    0.07    0.06    0.15
     24       -0.00    0.02   -0.09    0.03   -0.08    0.07   -0.10    0.09   -0.18
     25        0.00   -0.02    0.09   -0.03    0.08   -0.07    0.10   -0.09    0.18
     26        0.02    0.00    0.12    0.04   -0.02    0.05   -0.07   -0.06   -0.15
     27        0.09    0.04   -0.11   -0.02    0.02    0.06   -0.03    0.02    0.03
     28        0.06   -0.01   -0.07   -0.07   -0.01    0.12    0.02   -0.01   -0.01
     29        0.06   -0.01   -0.01   -0.02    0.12    0.11    0.05   -0.18   -0.10
     30        0.03    0.13    0.07   -0.03    0.02    0.05    0.01   -0.02    0.03
     31        0.00    0.08   -0.02    0.04   -0.07   -0.03    0.01    0.05   -0.02
     32       -0.07   -0.05    0.02   -0.01   -0.01   -0.02    0.06    0.19   -0.09
     33        0.07    0.05   -0.02    0.01    0.01    0.02   -0.06   -0.19    0.09
     34        0.00   -0.08    0.02   -0.04    0.07    0.03   -0.01   -0.05    0.02
     35       -0.03   -0.13   -0.07    0.03   -0.02   -0.05   -0.01    0.02   -0.03
     36       -0.06    0.01    0.01    0.02   -0.12   -0.11   -0.05    0.18    0.10
     37       -0.10   -0.01    0.13    0.08   -0.02   -0.09   -0.04    0.04    0.01
     38       -0.14    0.05   -0.09    0.01    0.03   -0.01    0.09   -0.07    0.11
     39       -0.13   -0.03    0.16    0.01   -0.02   -0.04    0.09    0.04   -0.04
     40       -0.11    0.01   -0.07    0.08    0.01    0.07   -0.03   -0.04   -0.06
     41        0.11   -0.01    0.07   -0.08   -0.01   -0.07    0.03    0.04    0.06
     42        0.13    0.03   -0.16   -0.01    0.02    0.04   -0.09   -0.04    0.04
     43        0.14   -0.05    0.09   -0.01   -0.03    0.01   -0.09    0.07   -0.11
     44        0.10    0.01   -0.13   -0.08    0.02    0.09    0.04   -0.04   -0.01
     45        0.01   -0.02   -0.01   -0.02    0.17    0.18    0.03   -0.03    0.01
     46        0.00    0.03    0.01   -0.02   -0.13    0.12   -0.06   -0.17    0.11
     47        0.00    0.04    0.00    0.01    0.12    0.15    0.06    0.07    0.15
     48       -0.01   -0.01   -0.01    0.01   -0.13    0.14   -0.04   -0.06    0.01
     49        0.01    0.01    0.01   -0.01    0.13   -0.14    0.04    0.06   -0.01
     50       -0.00   -0.04   -0.00   -0.01   -0.12   -0.15   -0.06   -0.07   -0.15
     51       -0.00   -0.03   -0.01    0.02    0.13   -0.12    0.06    0.17   -0.11
     52       -0.01    0.02    0.01    0.02   -0.17   -0.18   -0.03    0.03   -0.01
     53        0.15   -0.17   -0.07    0.08   -0.08   -0.01   -0.02   -0.05   -0.02
     54       -0.07   -0.06    0.02   -0.14   -0.12   -0.05   -0.05   -0.04   -0.01
     55        0.05   -0.07   -0.04    0.10   -0.15    0.01    0.02   -0.03   -0.00
     56       -0.17   -0.16    0.03   -0.04   -0.06   -0.01   -0.11   -0.04    0.00
     57        0.17    0.16   -0.03    0.04    0.06    0.01    0.11    0.04   -0.00
     58       -0.05    0.07    0.04   -0.10    0.15   -0.01   -0.02    0.03    0.00
     59        0.07    0.06   -0.02    0.14    0.12    0.05    0.05    0.04    0.01
     60       -0.15    0.17    0.07   -0.08    0.08    0.01    0.02    0.05    0.02
                      22                      23                      24
                      A                      A                      A
 Frequencies --   435.3400               483.4400              483.9500
 Red. masses --   12.0000                 12.0000               12.0000
 Frc consts  --   1.3399                 1.6524                1.6559
 IR Inten    --   0.0000                 0.0000                0.0000
  Atom  AN      X      Y      Z        X      Y      Z        X      Y      Z
     1        -0.05    0.01   -0.02   -0.07    0.00    0.04   -0.19    0.03    0.01
     2        -0.10   -0.01   -0.02   -0.14    0.01   -0.00   -0.12    0.01   -0.04
     3         0.10    0.01    0.02    0.14   -0.01    0.00    0.12   -0.01    0.04
     4         0.05   -0.01    0.02    0.07   -0.00   -0.04    0.19   -0.03   -0.01
     5        -0.06   -0.02    0.19   -0.01   -0.04    0.02   -0.01   -0.02    0.20
     6        -0.07    0.01   -0.07    0.01   -0.02    0.16    0.01   -0.04    0.11
     7         0.07   -0.01    0.07   -0.01    0.02   -0.16   -0.01    0.04   -0.11
     8         0.06    0.02   -0.19    0.01    0.04   -0.02    0.01    0.02   -0.20
     9         0.01   -0.10   -0.01    0.03    0.14    0.02   -0.00    0.18    0.03
     10       -0.04   -0.15    0.00   -0.04    0.06    0.00    0.04    0.12    0.00
     11        0.04    0.15    0.00    0.04   -0.06   -0.00   -0.04   -0.12   -0.00
     12       -0.01    0.10    0.01   -0.03   -0.14   -0.02    0.00   -0.18   -0.03
     13        0.09   -0.05   -0.07   -0.11    0.04    0.06   -0.06    0.00    0.02
     14       -0.11    0.09   -0.01    0.16   -0.10    0.08   -0.05   -0.04    0.01
     15        0.04    0.03   -0.04   -0.03    0.04   -0.00    0.14    0.08   -0.08
     16       -0.14   -0.07   -0.02   -0.06    0.01   -0.02   -0.09   -0.00   -0.04
     17        0.14    0.07    0.02    0.06   -0.01    0.02    0.09    0.00    0.04
     18       -0.04   -0.03    0.04    0.03   -0.04    0.00   -0.14   -0.08    0.08
     19        0.11   -0.09    0.01   -0.16    0.10   -0.08    0.05    0.04   -0.01
     20       -0.09    0.05    0.07    0.11   -0.04   -0.06    0.06   -0.00   -0.02
     21       -0.01    0.02    0.10    0.06   -0.07   -0.18    0.01    0.02    0.08
     22       -0.02   -0.04    0.11   -0.02   -0.03    0.03    0.04   -0.00    0.05
     23       -0.10   -0.01   -0.16    0.01    0.02    0.09   -0.07   -0.06   -0.13
     24       -0.07    0.02   -0.09   -0.02   -0.01    0.07   -0.00   -0.02    0.03
     25        0.07   -0.02    0.09    0.02    0.01   -0.07    0.00    0.02   -0.03
     26        0.10    0.01    0.16   -0.01   -0.02   -0.09    0.07    0.06    0.13
     27        0.02    0.04   -0.11    0.02    0.03   -0.03   -0.04    0.00   -0.05
     28        0.01   -0.02   -0.10   -0.06    0.07    0.18   -0.01   -0.02   -0.08
     29        0.02   -0.07   -0.02    0.04   -0.00   -0.05   -0.03    0.10    0.03
     30        0.07    0.06    0.05    0.07    0.11    0.04   -0.04    0.01   -0.06
     31       -0.06    0.07   -0.04   -0.05    0.10   -0.03    0.08   -0.16    0.07
     32       -0.05   -0.14    0.03   -0.12   -0.17    0.07    0.05    0.10   -0.01
     33        0.05    0.14   -0.03    0.12    0.17   -0.07   -0.05   -0.10    0.01
     34        0.06   -0.07    0.04    0.05   -0.10    0.03   -0.08    0.16   -0.07
     35       -0.07   -0.06   -0.05   -0.07   -0.11   -0.04    0.04   -0.01    0.06
     36       -0.02    0.07    0.02   -0.04    0.00    0.05    0.03   -0.10   -0.03
     37        0.12   -0.02   -0.07   -0.04   -0.02   -0.00    0.09    0.01   -0.03
     38        0.11   -0.03    0.14    0.19   -0.08    0.11   -0.02    0.02   -0.01
     39        0.10    0.01   -0.06   -0.07   -0.02    0.04    0.19    0.06   -0.12
     40        0.13   -0.01    0.17    0.07   -0.02    0.01    0.01    0.03    0.02
     41       -0.13    0.01   -0.17   -0.07    0.02   -0.01   -0.01   -0.03   -0.02
     42       -0.10   -0.01    0.06    0.07    0.02   -0.04   -0.19   -0.06    0.12
     43       -0.11    0.03   -0.14   -0.19    0.08   -0.11    0.02   -0.02    0.01
     44       -0.12    0.02    0.07    0.04    0.02    0.00   -0.09   -0.01    0.03
     45       -0.01    0.03    0.07    0.07   -0.11   -0.21   -0.02    0.00   -0.05
     46        0.00   -0.01    0.05    0.05    0.04   -0.02   -0.04   -0.04    0.03
     47        0.01    0.07    0.05    0.04    0.02   -0.02   -0.07   -0.10   -0.20
     48        0.01   -0.09    0.06    0.04   -0.07    0.06   -0.05    0.06   -0.04
     49       -0.01    0.09   -0.06   -0.04    0.07   -0.06    0.05   -0.06    0.04
     50       -0.01   -0.07   -0.05   -0.04   -0.02    0.02    0.07    0.10    0.20
     51       -0.00    0.01   -0.05   -0.05   -0.04    0.02    0.04    0.04   -0.03
     52        0.01   -0.03   -0.07   -0.07    0.11    0.21    0.02   -0.00    0.05
     53        0.02   -0.01   -0.04   -0.02    0.02    0.03    0.01   -0.05    0.01
     54        0.13    0.11    0.07    0.01   -0.03    0.02    0.01   -0.01    0.01
     55       -0.11    0.14   -0.04    0.03   -0.03    0.04    0.10   -0.19    0.03
     56       -0.01   -0.03    0.04   -0.13   -0.17    0.04   -0.04   -0.03    0.03
     57        0.01    0.03   -0.04    0.13    0.17   -0.04    0.04    0.03   -0.03
     58        0.11   -0.14    0.04   -0.03    0.03   -0.04   -0.10    0.19   -0.03
     59       -0.13   -0.11   -0.07   -0.01    0.03   -0.02   -0.01    0.01   -0.01
     60       -0.02    0.01    0.04    0.02   -0.02   -0.03   -0.01    0.05   -0.01
                      25                      26                      27
                      A                      A                      A
 Frequencies --   484.6300               485.2400              493.9300
 Red. masses --   12.0000                 12.0000               12.0000
 Frc consts  --   1.6606                 1.6647                1.7249
 IR Inten    --   0.0000                 0.0000                0.0000
  Atom  AN      X      Y      Z        X      Y      Z        X      Y      Z
     1        -0.12    0.02   -0.04    0.10   -0.01   -0.01   -0.13    0.03    0.01
     2        -0.15   -0.00    0.04   -0.06    0.01   -0.03   -0.13   -0.01   -0.00
     3         0.15    0.00   -0.04    0.06   -0.01    0.03    0.13    0.01    0.00
     4         0.12   -0.02    0.04   -0.10    0.01    0.01    0.13   -0.03   -0.01
     5        -0.01   -0.00    0.13   -0.00   -0.05    0.02   -0.02   -0.01    0.13
     6         0.01    0.02    0.14    0.00    0.04   -0.07    0.02   -0.02    0.13
     7        -0.01   -0.02   -0.14   -0.00   -0.04    0.07   -0.02    0.02   -0.13
     8         0.01    0.00   -0.13    0.00    0.05   -0.02    0.02    0.01   -0.13
     9         0.00    0.06    0.02   -0.06   -0.00   -0.00    0.01    0.12    0.04
     10        0.01    0.21    0.02   -0.00   -0.03   -0.01    0.01    0.13   -0.01
     11       -0.01   -0.21   -0.02    0.00    0.03    0.01   -0.01   -0.13    0.01
     12       -0.00   -0.06   -0.02    0.06    0.00    0.00   -0.01   -0.12   -0.04
     13        0.13   -0.09   -0.11    0.11   -0.01   -0.04   -0.11    0.06    0.05
     14       -0.11    0.05   -0.06    0.07   -0.01    0.02   -0.10    0.06   -0.04
     15       -0.16   -0.05    0.08   -0.00    0.02   -0.01   -0.11   -0.05    0.04
     16        0.09    0.07    0.09   -0.17   -0.02   -0.08   -0.11   -0.04   -0.05
     17       -0.09   -0.07   -0.09    0.17    0.02    0.08    0.11    0.04    0.05
     18        0.16    0.05   -0.08    0.00   -0.02    0.01    0.11    0.05   -0.04
     19        0.11   -0.05    0.06   -0.07    0.01   -0.02    0.10   -0.06    0.04
     20       -0.13    0.09    0.11   -0.11    0.01    0.04    0.11   -0.06   -0.05
     21        0.02   -0.01    0.03    0.06   -0.06   -0.10   -0.05    0.03    0.11
     22        0.02    0.02   -0.01   -0.09   -0.13    0.18   -0.05   -0.05    0.10
     23        0.02    0.03    0.13    0.07    0.04    0.06    0.05    0.03    0.11
     24       -0.06    0.08   -0.09   -0.06    0.12   -0.15    0.05   -0.06    0.11
     25        0.06   -0.08    0.09    0.06   -0.12    0.15   -0.05    0.06   -0.11
     26       -0.02   -0.03   -0.13   -0.07   -0.04   -0.06   -0.05   -0.03   -0.11
     27       -0.02   -0.02    0.01    0.09    0.13   -0.18    0.05    0.05   -0.10
     28       -0.02    0.01   -0.03   -0.06    0.06    0.10    0.05   -0.03   -0.11
     29        0.03   -0.04   -0.03   -0.09    0.17    0.09   -0.04    0.10    0.06
     30       -0.05   -0.08   -0.04   -0.10   -0.13   -0.08    0.05    0.10    0.07
     31       -0.03    0.12    0.02    0.02   -0.02    0.01   -0.04    0.12   -0.04
     32        0.01    0.05    0.03    0.01   -0.01   -0.03    0.05    0.11   -0.04
     33       -0.01   -0.05   -0.03   -0.01    0.01    0.03   -0.05   -0.11    0.04
     34        0.03   -0.12   -0.02   -0.02    0.02   -0.01    0.04   -0.12    0.04
     35        0.05    0.08    0.04    0.10    0.13    0.08   -0.05   -0.10   -0.07
     36       -0.03    0.04    0.03    0.09   -0.17   -0.09    0.04   -0.10   -0.06
     37        0.10   -0.04   -0.08    0.13   -0.07   -0.11   -0.09    0.03    0.09
     38        0.04   -0.03    0.02    0.01   -0.07    0.04   -0.09    0.04   -0.08
     39       -0.01   -0.02    0.02   -0.02   -0.06    0.04   -0.10   -0.03    0.08
     40        0.07   -0.01    0.04   -0.18   -0.05   -0.14   -0.09   -0.01   -0.08
     41       -0.07    0.01   -0.04    0.18    0.05    0.14    0.09    0.01    0.08
     42        0.01    0.02   -0.02    0.02    0.06   -0.04    0.10    0.03   -0.08
     43       -0.04    0.03   -0.02   -0.01    0.07   -0.04    0.09   -0.04    0.08
     44       -0.10    0.04    0.08   -0.13    0.07    0.11    0.09   -0.03   -0.09
     45        0.01    0.01    0.04   -0.03    0.03    0.01   -0.02    0.07    0.10
     46        0.03    0.10   -0.14   -0.06   -0.10    0.11   -0.03   -0.09    0.09
     47        0.00    0.03    0.07   -0.04   -0.03   -0.03    0.03    0.07    0.10
     48       -0.02    0.11   -0.16   -0.04    0.07   -0.04    0.02   -0.10    0.09
     49        0.02   -0.11    0.16    0.04   -0.07    0.04   -0.02    0.10   -0.09
     50       -0.00   -0.03   -0.07    0.04    0.03    0.03   -0.03   -0.07   -0.10
     51       -0.03   -0.10    0.14    0.06    0.10   -0.11    0.03    0.09   -0.09
     52       -0.01   -0.01   -0.04    0.03   -0.03   -0.01    0.02   -0.07   -0.10
     53        0.09   -0.10   -0.09   -0.08    0.17    0.05   -0.08    0.10    0.04
     54       -0.13   -0.15   -0.10   -0.06   -0.11   -0.01    0.09    0.09    0.04
     55       -0.06    0.06   -0.05   -0.03    0.09    0.01   -0.07    0.10   -0.01
     56        0.03   -0.00   -0.05   -0.06   -0.09    0.01    0.09    0.09   -0.01
     57       -0.03    0.00    0.05    0.06    0.09   -0.01   -0.09   -0.09    0.01
     58        0.06   -0.06    0.05    0.03   -0.09   -0.01    0.07   -0.10    0.01
     59        0.13    0.15    0.10    0.06    0.11    0.01   -0.09   -0.09   -0.04
     60       -0.09    0.10    0.09    0.08   -0.17   -0.05    0.08   -0.10   -0.04
                      28                      29                      30
                      A                      A                      A
 Frequencies --   511.4400               514.7200              517.0000
 Red. masses --   12.0000                 12.0000               12.0000
 Frc consts  --   1.8493                 1.8732                1.8898
 IR Inten    --   0.0000                 0.0000                0.0000
  Atom  AN      X      Y      Z        X      Y      Z        X      Y      Z
     1        -0.06    0.01    0.02   -0.19    0.08    0.01   -0.03    0.00   -0.02
     2        -0.01    0.01    0.02    0.20    0.06    0.00   -0.05    0.00   -0.02
     3        -0.01    0.01    0.02    0.20    0.06    0.00   -0.05    0.00   -0.02
     4        -0.06    0.01    0.02   -0.19    0.08    0.01   -0.03    0.00   -0.02
     5         0.06    0.01   -0.16   -0.00   -0.03   -0.02    0.03    0.02   -0.13
     6         0.06   -0.03    0.17   -0.00   -0.02   -0.01    0.04   -0.01    0.08
     7         0.06   -0.03    0.17   -0.00   -0.02   -0.01    0.04   -0.01    0.08
     8         0.06    0.01   -0.16   -0.00   -0.03   -0.02    0.03    0.02   -0.13
     9        -0.03   -0.10   -0.05   -0.00   -0.03    0.01    0.00    0.19    0.09
     10       -0.01    0.13   -0.03   -0.01   -0.09   -0.00   -0.03   -0.17    0.05
     11       -0.01    0.13   -0.03   -0.01   -0.09   -0.00   -0.03   -0.17    0.05
     12       -0.03   -0.10   -0.05   -0.00   -0.03    0.01    0.00    0.19    0.09
     13       -0.08    0.03    0.04   -0.06    0.02    0.00    0.15   -0.09   -0.06
     14        0.07   -0.07    0.01   -0.11    0.04   -0.00   -0.12    0.07   -0.04
     15       -0.07   -0.02    0.03    0.11    0.03   -0.01    0.14    0.08   -0.03
     16        0.13    0.07    0.04    0.07    0.01   -0.00   -0.12   -0.04   -0.04
     17        0.13    0.07    0.04    0.07    0.01   -0.00   -0.12   -0.04   -0.04
     18       -0.07   -0.02    0.03    0.11    0.03   -0.01    0.14    0.08   -0.03
     19        0.07   -0.07    0.01   -0.11    0.04   -0.00   -0.12    0.07   -0.04
     20       -0.08    0.03    0.04   -0.06    0.02    0.00    0.15   -0.09   -0.06
     21        0.04    0.00   -0.08    0.10   -0.04   -0.18   -0.03    0.00   -0.01
     22        0.05    0.01   -0.10   -0.11   -0.07    0.17   -0.01    0.02   -0.04
     23        0.00   -0.00    0.04   -0.09   -0.02   -0.16    0.06   -0.02    0.09
     24        0.01   -0.03    0.07    0.09   -0.07    0.16    0.02    0.00    0.04
     25        0.01   -0.03    0.07    0.09   -0.07    0.16    0.02    0.00    0.04
     26        0.00   -0.00    0.04   -0.09   -0.02   -0.16    0.06   -0.02    0.09
     27        0.05    0.01   -0.10   -0.11   -0.07    0.17   -0.01    0.02   -0.04
     28        0.04    0.00   -0.08    0.10   -0.04   -0.18   -0.03    0.00   -0.01
     29       -0.02    0.07    0.07    0.00    0.03    0.04   -0.02    0.18    0.11
     30       -0.06   -0.17   -0.11    0.00    0.02    0.03   -0.03   -0.03   -0.05
     31       -0.03    0.22   -0.07    0.00    0.01   -0.03   -0.01    0.01   -0.02
     32       -0.04   -0.09    0.05   -0.00    0.01   -0.03   -0.04   -0.17    0.06
     33       -0.04   -0.09    0.05   -0.00    0.01   -0.03   -0.04   -0.17    0.06
     34       -0.03    0.22   -0.07    0.00    0.01   -0.03   -0.01    0.01   -0.02
     35       -0.06   -0.17   -0.11    0.00    0.02    0.03   -0.03   -0.03   -0.05
     36       -0.02    0.07    0.07    0.00    0.03    0.04   -0.02    0.18    0.11
     37       -0.02    0.01   -0.01    0.06   -0.03   -0.09   -0.12    0.01    0.12
     38       -0.12    0.03   -0.10    0.09   -0.05    0.11    0.02    0.00    0.04
     39       -0.01   -0.00   -0.01   -0.10   -0.04    0.10   -0.12   -0.02    0.11
     40       -0.12    0.01   -0.12   -0.06   -0.02   -0.08    0.06   -0.01    0.08
     41       -0.12    0.01   -0.12   -0.06   -0.02   -0.08    0.06   -0.01    0.08
     42       -0.01   -0.00   -0.01   -0.10   -0.04    0.10   -0.12   -0.02    0.11
     43       -0.12    0.03   -0.10    0.09   -0.05    0.11    0.02    0.00    0.04
     44       -0.02    0.01   -0.01    0.06   -0.03   -0.09   -0.12    0.01    0.12
     45       -0.03    0.10    0.13   -0.00    0.10    0.11   -0.01   -0.01   -0.04
     46       -0.04   -0.12    0.08    0.02    0.14   -0.10   -0.01   -0.00   -0.02
     47       -0.03   -0.03   -0.01    0.01    0.10    0.10   -0.04   -0.12   -0.15
     48       -0.01    0.04   -0.00    0.00    0.14   -0.09   -0.02    0.10   -0.09
     49       -0.01    0.04   -0.00    0.00    0.14   -0.09   -0.02    0.10   -0.09
     50       -0.03   -0.03   -0.01    0.01    0.10    0.10   -0.04   -0.12   -0.15
     51       -0.04   -0.12    0.08    0.02    0.14   -0.10   -0.01   -0.00   -0.02
     52       -0.03    0.10    0.13   -0.00    0.10    0.11   -0.01   -0.01   -0.04
     53        0.05   -0.07    0.01    0.06   -0.08   -0.02    0.14   -0.11   -0.04
     54        0.15    0.10    0.04   -0.08   -0.08   -0.03    0.00    0.01   -0.03
     55        0.15   -0.15    0.01    0.05   -0.08   -0.00   -0.00    0.00   -0.02
     56        0.03    0.02    0.02   -0.04   -0.06   -0.01    0.14    0.10   -0.03
     57        0.03    0.02    0.02   -0.04   -0.06   -0.01    0.14    0.10   -0.03
     58        0.15   -0.15    0.01    0.05   -0.08   -0.00   -0.00    0.00   -0.02
     59        0.15    0.10    0.04   -0.08   -0.08   -0.03    0.00    0.01   -0.03
     60        0.05   -0.07    0.01    0.06   -0.08   -0.02    0.14   -0.11   -0.04
                      31                      32                      33
                      A                      A                      A
 Frequencies --   531.6600               532.0500              532.7200
 Red. masses --   12.0000                 12.0000               12.0000
 Frc consts  --   1.9984                 2.0014                2.0064
 IR Inten    --   0.0000                 0.0000                0.0000
  Atom  AN      X      Y      Z        X      Y      Z        X      Y      Z
     1        -0.01    0.04    0.00   -0.10    0.04    0.03   -0.18    0.07   -0.00
     2         0.11    0.04   -0.01   -0.05    0.02   -0.02   -0.04    0.04    0.02
     3         0.11    0.04   -0.01   -0.05    0.02   -0.02   -0.04    0.04    0.02
     4        -0.01    0.04    0.00   -0.10    0.04    0.03   -0.18    0.07   -0.00
     5        -0.00   -0.01    0.14   -0.04   -0.00   -0.00   -0.06    0.01    0.05
     6         0.04   -0.04    0.18   -0.05    0.02   -0.13   -0.07    0.01   -0.16
     7         0.04   -0.04    0.18   -0.05    0.02   -0.13   -0.07    0.01   -0.16
     8        -0.00   -0.01    0.14   -0.04   -0.00   -0.00   -0.06    0.01    0.05
     9         0.03    0.16    0.10    0.02   -0.01   -0.02    0.01    0.05   -0.01
     10       -0.01   -0.04    0.06   -0.01    0.06   -0.02    0.01    0.15   -0.02
     11       -0.01   -0.04    0.06   -0.01    0.06   -0.02    0.01    0.15   -0.02
     12        0.03    0.16    0.10    0.02   -0.01   -0.02    0.01    0.05   -0.01
     13        0.02    0.01    0.01    0.07   -0.06   -0.01    0.06   -0.01   -0.04
     14       -0.08    0.04   -0.04   -0.09    0.08    0.03   -0.13    0.08   -0.01
     15       -0.16   -0.09    0.01    0.00   -0.00   -0.04   -0.04    0.00   -0.01
     16        0.20    0.10    0.03    0.03    0.02    0.01    0.12    0.01    0.09
     17        0.20    0.10    0.03    0.03    0.02    0.01    0.12    0.01    0.09
     18       -0.16   -0.09    0.01    0.00   -0.00   -0.04   -0.04    0.00   -0.01
     19       -0.08    0.04   -0.04   -0.09    0.08    0.03   -0.13    0.08   -0.01
     20        0.02    0.01    0.01    0.07   -0.06   -0.01    0.06   -0.01   -0.04
     21       -0.05   -0.03    0.09   -0.11    0.04    0.23   -0.01    0.04    0.03
     22        0.06    0.08   -0.11    0.08    0.01   -0.15   -0.04   -0.04    0.07
     23       -0.01   -0.05   -0.07   -0.10   -0.00   -0.20    0.03   -0.03    0.03
     24        0.03   -0.01    0.08    0.06   -0.05    0.13   -0.10    0.03   -0.13
     25        0.03   -0.01    0.08    0.06   -0.05    0.13   -0.10    0.03   -0.13
     26       -0.01   -0.05   -0.07   -0.10   -0.00   -0.20    0.03   -0.03    0.03
     27        0.06    0.08   -0.11    0.08    0.01   -0.15   -0.04   -0.04    0.07
     28       -0.05   -0.03    0.09   -0.11    0.04    0.23   -0.01    0.04    0.03
     29        0.00    0.06    0.05    0.06   -0.13   -0.05    0.02    0.12    0.10
     30        0.03    0.04    0.03    0.03    0.09    0.03   -0.07   -0.18   -0.13
     31        0.04   -0.13    0.06   -0.04    0.18   -0.06    0.04   -0.10    0.02
     32       -0.06   -0.00   -0.01   -0.05   -0.13    0.04    0.03    0.14   -0.04
     33       -0.06   -0.00   -0.01   -0.05   -0.13    0.04    0.03    0.14   -0.04
     34        0.04   -0.13    0.06   -0.04    0.18   -0.06    0.04   -0.10    0.02
     35        0.03    0.04    0.03    0.03    0.09    0.03   -0.07   -0.18   -0.13
     36        0.00    0.06    0.05    0.06   -0.13   -0.05    0.02    0.12    0.10
     37       -0.01   -0.02   -0.01   -0.03   -0.01    0.07    0.10   -0.02   -0.10
     38       -0.08    0.06   -0.08    0.12   -0.04    0.17   -0.02    0.03    0.02
     39        0.02   -0.00   -0.09    0.11    0.01   -0.12    0.05   -0.01   -0.05
     40       -0.01    0.03   -0.10    0.02    0.01    0.01    0.19    0.02    0.18
     41       -0.01    0.03   -0.10    0.02    0.01    0.01    0.19    0.02    0.18
     42        0.02   -0.00   -0.09    0.11    0.01   -0.12    0.05   -0.01   -0.05
     43       -0.08    0.06   -0.08    0.12   -0.04    0.17   -0.02    0.03    0.02
     44       -0.01   -0.02   -0.01   -0.03   -0.01    0.07    0.10   -0.02   -0.10
     45       -0.01   -0.10   -0.09   -0.04    0.00    0.08    0.00    0.08    0.12
     46        0.05    0.14   -0.14    0.01   -0.11    0.04   -0.02   -0.04    0.05
     47       -0.04   -0.12   -0.15   -0.04    0.04   -0.01   -0.02   -0.09   -0.07
     48        0.03    0.02   -0.01    0.04   -0.00    0.03   -0.01   -0.12    0.04
     49        0.03    0.02   -0.01    0.04   -0.00    0.03   -0.01   -0.12    0.04
     50       -0.04   -0.12   -0.15   -0.04    0.04   -0.01   -0.02   -0.09   -0.07
     51        0.05    0.14   -0.14    0.01   -0.11    0.04   -0.02   -0.04    0.05
     52       -0.01   -0.10   -0.09   -0.04    0.00    0.08    0.00    0.08    0.12
     53        0.04   -0.01    0.01    0.12   -0.14   -0.07    0.13   -0.08    0.00
     54        0.04    0.04    0.01    0.04    0.03    0.04   -0.02   -0.08   -0.04
     55        0.01   -0.06    0.01   -0.02    0.09   -0.03    0.07   -0.09    0.03
     56       -0.20   -0.16    0.01   -0.03   -0.06    0.02   -0.03   -0.00   -0.03
     57       -0.20   -0.16    0.01   -0.03   -0.06    0.02   -0.03   -0.00   -0.03
     58        0.01   -0.06    0.01   -0.02    0.09   -0.03    0.07   -0.09    0.03
     59        0.04    0.04    0.01    0.04    0.03    0.04   -0.02   -0.08   -0.04
     60        0.04   -0.01    0.01    0.12   -0.14   -0.07    0.13   -0.08    0.00
                      34                      35                      36
                      A                      A                      A
 Frequencies --   533.8100               534.5600              546.4400
 Red. masses --   12.0000                 12.0000               12.0000
 Frc consts  --   2.0146                 2.0204                2.1112
 IR Inten    --   0.0000                 0.0000                0.0000
  Atom  AN      X      Y      Z        X      Y      Z        X      Y      Z
     1         0.07    0.04    0.01    0.14   -0.09   -0.01   -0.13    0.06    0.01
     2         0.24    0.06    0.01   -0.07   -0.06   -0.00    0.15    0.04    0.01
     3         0.24    0.06    0.01   -0.07   -0.06   -0.00   -0.15   -0.04   -0.01
     4         0.07    0.04    0.01    0.14   -0.09   -0.01    0.13   -0.06   -0.01
     5         0.09    0.01   -0.20    0.04    0.04   -0.09   -0.00   -0.03    0.00
     6         0.06   -0.01   -0.01    0.02   -0.01   -0.02   -0.00   -0.05   -0.01
     7         0.06   -0.01   -0.01    0.02   -0.01   -0.02    0.00    0.05    0.01
     8         0.09    0.01   -0.20    0.04    0.04   -0.09    0.00    0.03   -0.00
     9         0.00    0.06   -0.03    0.00   -0.16   -0.07   -0.03   -0.14   -0.07
     10        0.01    0.19   -0.05   -0.02   -0.09   -0.03   -0.00    0.14   -0.04
     11        0.01    0.19   -0.05   -0.02   -0.09   -0.03    0.00   -0.14    0.04
     12        0.00    0.06   -0.03    0.00   -0.16   -0.07    0.03    0.14    0.07
     13        0.01   -0.03    0.06    0.22   -0.13   -0.07   -0.13    0.05    0.03
     14       -0.10    0.08   -0.06   -0.10    0.06   -0.01    0.02   -0.03    0.01
     15        0.07    0.05    0.02   -0.19   -0.08    0.07    0.11    0.03   -0.01
     16        0.01   -0.00   -0.01    0.07    0.01   -0.01   -0.01   -0.02   -0.01
     17        0.01   -0.00   -0.01    0.07    0.01   -0.01    0.01    0.02    0.01
     18        0.07    0.05    0.02   -0.19   -0.08    0.07   -0.11   -0.03    0.01
     19       -0.10    0.08   -0.06   -0.10    0.06   -0.01   -0.02    0.03   -0.01
     20        0.01   -0.03    0.06    0.22   -0.13   -0.07    0.13   -0.05   -0.03
     21       -0.01   -0.00    0.00    0.04    0.04    0.00    0.10   -0.03   -0.18
     22        0.07    0.01   -0.10   -0.01    0.04   -0.03   -0.11   -0.06    0.17
     23        0.07    0.04    0.09   -0.04    0.01   -0.07   -0.06   -0.02   -0.03
     24        0.01   -0.07    0.04    0.06   -0.07    0.12    0.06   -0.04    0.02
     25        0.01   -0.07    0.04    0.06   -0.07    0.12   -0.06    0.04   -0.02
     26        0.07    0.04    0.09   -0.04    0.01   -0.07    0.06    0.02    0.03
     27        0.07    0.01   -0.10   -0.01    0.04   -0.03    0.11    0.06   -0.17
     28       -0.01   -0.00    0.00    0.04    0.04    0.00   -0.10    0.03    0.18
     29        0.04   -0.07   -0.07   -0.01    0.05    0.03   -0.02    0.03    0.05
     30       -0.05    0.02    0.02    0.01   -0.09   -0.07   -0.04   -0.13   -0.08
     31        0.00   -0.04    0.02   -0.05   -0.09    0.05   -0.02    0.17   -0.05
     32       -0.00    0.10   -0.07    0.05    0.13   -0.06   -0.02   -0.06    0.04
     33       -0.00    0.10   -0.07    0.05    0.13   -0.06    0.02    0.06   -0.04
     34        0.00   -0.04    0.02   -0.05   -0.09    0.05    0.02   -0.17    0.05
     35       -0.05    0.02    0.02    0.01   -0.09   -0.07    0.04    0.13    0.08
     36        0.04   -0.07   -0.07   -0.01    0.05    0.03    0.02   -0.03   -0.05
     37       -0.15    0.01    0.19    0.04   -0.04    0.02    0.07   -0.02   -0.10
     38       -0.11    0.04   -0.07   -0.01    0.02    0.03   -0.05   -0.01   -0.02
     39       -0.07   -0.02    0.12   -0.14   -0.06    0.09   -0.07   -0.03    0.09
     40       -0.01    0.01   -0.01   -0.03    0.03   -0.04    0.04   -0.03    0.01
     41       -0.01    0.01   -0.01   -0.03    0.03   -0.04   -0.04    0.03   -0.01
     42       -0.07   -0.02    0.12   -0.14   -0.06    0.09    0.07    0.03   -0.09
     43       -0.11    0.04   -0.07   -0.01    0.02    0.03    0.05    0.01    0.02
     44       -0.15    0.01    0.19    0.04   -0.04    0.02   -0.07    0.02    0.10
     45        0.01   -0.02   -0.02   -0.02    0.14    0.13   -0.01    0.14    0.16
     46       -0.00   -0.07    0.00    0.03    0.09   -0.05    0.03    0.17   -0.12
     47        0.02    0.05    0.10   -0.00    0.04    0.00   -0.01    0.04    0.05
     48        0.02   -0.17    0.12    0.01   -0.07    0.09    0.01    0.04   -0.04
     49        0.02   -0.17    0.12    0.01   -0.07    0.09   -0.01   -0.04    0.04
     50        0.02    0.05    0.10   -0.00    0.04    0.00    0.01   -0.04   -0.05
     51       -0.00   -0.07    0.00    0.03    0.09   -0.05   -0.03   -0.17    0.12
     52        0.01   -0.02   -0.02   -0.02    0.14    0.13    0.01   -0.14   -0.16
     53        0.04   -0.09   -0.02   -0.02    0.03    0.02    0.02   -0.05    0.01
     54       -0.18   -0.12   -0.05    0.13    0.08   -0.00    0.14    0.10    0.04
     55       -0.03    0.01   -0.01   -0.18    0.16    0.01    0.13   -0.13    0.02
     56       -0.11   -0.04   -0.00    0.03    0.07   -0.01    0.05    0.05    0.02
     57       -0.11   -0.04   -0.00    0.03    0.07   -0.01   -0.05   -0.05   -0.02
     58       -0.03    0.01   -0.01   -0.18    0.16    0.01   -0.13    0.13   -0.02
     59       -0.18   -0.12   -0.05    0.13    0.08   -0.00   -0.14   -0.10   -0.04
     60        0.04   -0.09   -0.02   -0.02    0.03    0.02   -0.02    0.05   -0.01
                      37                      38                      39
                      A                      A                      A
 Frequencies --   548.5000               549.4900              583.0400
 Red. masses --   12.0000                 12.0000               12.0000
 Frc consts  --   2.1271                 2.1347                2.4034
 IR Inten    --   0.0000                 0.0000                0.0000
  Atom  AN      X      Y      Z        X      Y      Z        X      Y      Z
     1         0.15   -0.06   -0.01    0.02   -0.00   -0.03   -0.00    0.02   -0.04
     2        -0.16   -0.04    0.01   -0.02   -0.00   -0.03    0.01    0.01    0.05
     3         0.16    0.04   -0.01    0.02    0.00    0.03   -0.01   -0.01   -0.05
     4        -0.15    0.06    0.01   -0.02    0.00    0.03    0.00   -0.02    0.04
     5        -0.01   -0.02    0.04    0.07    0.01   -0.21    0.00    0.07    0.01
     6        -0.01    0.00   -0.04    0.07   -0.03    0.20    0.01    0.19    0.03
     7         0.01   -0.00    0.04   -0.07    0.03   -0.20   -0.01   -0.19   -0.03
     8         0.01    0.02   -0.04   -0.07   -0.01    0.21   -0.00   -0.07   -0.01
     9         0.02   -0.13   -0.07    0.01   -0.03   -0.02   -0.16   -0.01   -0.01
     10        0.05    0.15   -0.04   -0.00    0.05   -0.01   -0.16    0.04   -0.01
     11       -0.05   -0.15    0.04    0.00   -0.05    0.01    0.16   -0.04    0.01
     12       -0.02    0.13    0.07   -0.01    0.03    0.02    0.16    0.01    0.01
     13       -0.05    0.03    0.02    0.13   -0.10   -0.05   -0.05   -0.05   -0.01
     14        0.15   -0.06    0.01   -0.11    0.10   -0.03    0.06    0.09   -0.02
     15       -0.00   -0.01   -0.00    0.16    0.09   -0.03    0.04   -0.06   -0.00
     16       -0.10    0.00   -0.01   -0.17   -0.08   -0.05   -0.04    0.09    0.04
     17        0.10   -0.00    0.01    0.17    0.08    0.05    0.04   -0.09   -0.04
     18        0.00    0.01    0.00   -0.16   -0.09    0.03   -0.04    0.06    0.00
     19       -0.15    0.06   -0.01    0.11   -0.10    0.03   -0.06   -0.09    0.02
     20        0.05   -0.03   -0.02   -0.13    0.10    0.05    0.05    0.05    0.01
     21        0.02   -0.01   -0.01    0.02   -0.00   -0.07    0.01   -0.00    0.00
     22       -0.03   -0.02    0.04   -0.00    0.01   -0.06   -0.01   -0.00   -0.00
     23       -0.09   -0.00   -0.19   -0.00   -0.00    0.03    0.17    0.07   -0.11
     24        0.08   -0.06    0.15    0.03   -0.03    0.10   -0.17    0.07    0.12
     25       -0.08    0.06   -0.15   -0.03    0.03   -0.10    0.17   -0.07   -0.12
     26        0.09    0.00    0.19    0.00    0.00   -0.03   -0.17   -0.07    0.11
     27        0.03    0.02   -0.04    0.00   -0.01    0.06    0.01    0.00    0.00
     28       -0.02    0.01    0.01   -0.02    0.00    0.07   -0.01    0.00   -0.00
     29        0.03   -0.16   -0.11    0.00    0.07    0.03   -0.05   -0.07    0.12
     30        0.04    0.07    0.09   -0.02   -0.09   -0.04   -0.03    0.06   -0.10
     31        0.03   -0.06    0.06    0.01   -0.12    0.03   -0.04   -0.04   -0.11
     32        0.04    0.13   -0.06    0.03    0.13   -0.03   -0.05    0.05    0.13
     33       -0.04   -0.13    0.06   -0.03   -0.13    0.03    0.05   -0.05   -0.13
     34       -0.03    0.06   -0.06   -0.01    0.12   -0.03    0.04    0.04    0.11
     35       -0.04   -0.07   -0.09    0.02    0.09    0.04    0.03   -0.06    0.10
     36       -0.03    0.16    0.11    0.00   -0.07   -0.03    0.05    0.07   -0.12
     37        0.04    0.00   -0.03   -0.11    0.00    0.12   -0.01   -0.04   -0.03
     38       -0.09    0.07   -0.12    0.10   -0.02    0.10    0.11    0.16   -0.04
     39        0.01    0.01   -0.01   -0.14   -0.02    0.14    0.00   -0.05    0.01
     40        0.04    0.03    0.08    0.13   -0.01    0.14   -0.09    0.16    0.07
     41       -0.04   -0.03   -0.08   -0.13    0.01   -0.14    0.09   -0.16   -0.07
     42       -0.01   -0.01    0.01    0.14    0.02   -0.14   -0.00    0.05   -0.01
     43        0.09   -0.07    0.12   -0.10    0.02   -0.10   -0.11   -0.16    0.04
     44       -0.04   -0.00    0.03    0.11   -0.00   -0.12    0.01    0.04    0.03
     45        0.00    0.01    0.02   -0.03    0.07    0.05    0.10   -0.05    0.06
     46        0.01    0.04   -0.03   -0.04   -0.05    0.01   -0.10   -0.01   -0.07
     47        0.03    0.14    0.15   -0.03   -0.03    0.00    0.15    0.07   -0.07
     48        0.00    0.14   -0.11   -0.03    0.10   -0.04   -0.13    0.06    0.09
     49       -0.00   -0.14    0.11    0.03   -0.10    0.04    0.13   -0.06   -0.09
     50       -0.03   -0.14   -0.15    0.03    0.03    0.00   -0.15   -0.07    0.07
     51       -0.01   -0.04    0.03    0.04    0.05   -0.01    0.10    0.01    0.07
     52       -0.00   -0.01   -0.02    0.03   -0.07   -0.05   -0.10    0.05   -0.06
     53       -0.14    0.12    0.05    0.06   -0.06   -0.02   -0.02   -0.07    0.07
     54       -0.08   -0.10    0.01    0.08    0.05    0.03    0.02   -0.02    0.03
     55       -0.03    0.06    0.03   -0.08    0.09   -0.01    0.02    0.01    0.04
     56       -0.12   -0.08    0.02   -0.11   -0.08    0.02   -0.01    0.06    0.09
     57        0.12    0.08   -0.02    0.11    0.08   -0.02    0.01   -0.06   -0.09
     58        0.03   -0.06   -0.03    0.08   -0.09    0.01   -0.02   -0.01   -0.04
     59        0.08    0.10   -0.01   -0.08   -0.05   -0.03   -0.02    0.02   -0.03
     60        0.14   -0.12   -0.05   -0.06    0.06    0.02    0.02    0.07   -0.07
                      40                      41                      42
                      A                      A                      A
 Frequencies --   585.0300               585.3800              585.8800
 Red. masses --   12.0000                 12.0000               12.0000
 Frc consts  --   2.4198                 2.4228                2.4269
 IR Inten    --   0.0000                 0.0000                0.0000
  Atom  AN      X      Y      Z        X      Y      Z        X      Y      Z
     1        -0.11    0.06   -0.07   -0.00    0.03   -0.20    0.12   -0.05   -0.07
     2        -0.12   -0.01   -0.07   -0.02    0.03   -0.21    0.13    0.02   -0.06
     3        -0.12   -0.01   -0.07    0.02   -0.03    0.21    0.13    0.02   -0.06
     4        -0.11    0.06   -0.07    0.00   -0.03    0.20    0.12   -0.05   -0.07
     5         0.01   -0.01    0.17    0.00   -0.02    0.00   -0.09   -0.01    0.07
     6         0.08   -0.01    0.09    0.00   -0.01   -0.01   -0.03   -0.03    0.15
     7         0.08   -0.01    0.09   -0.00    0.01    0.01   -0.03   -0.03    0.15
     8         0.01   -0.01    0.17   -0.00    0.02   -0.00   -0.09   -0.01    0.07
     9         0.06    0.02   -0.06   -0.09    0.01    0.00   -0.07    0.07   -0.04
     10        0.06   -0.05   -0.06    0.07   -0.00   -0.00   -0.07    0.00   -0.06
     11        0.06   -0.05   -0.06   -0.07    0.00    0.00   -0.07    0.00   -0.06
     12        0.06    0.02   -0.06    0.09   -0.01   -0.00   -0.07    0.07   -0.04
     13       -0.12    0.10    0.02   -0.08   -0.12   -0.07    0.01   -0.05   -0.10
     14        0.00    0.05   -0.08    0.08    0.13   -0.04    0.11   -0.11    0.01
     15       -0.14   -0.07    0.00   -0.07    0.16   -0.04    0.05    0.05   -0.10
     16       -0.03   -0.02   -0.10    0.07   -0.14   -0.07    0.15    0.07    0.04
     17       -0.03   -0.02   -0.10   -0.07    0.14    0.07    0.15    0.07    0.04
     18       -0.14   -0.07    0.00    0.07   -0.16    0.04    0.05    0.05   -0.10
     19        0.00    0.05   -0.08   -0.08   -0.13    0.04    0.11   -0.11    0.01
     20       -0.12    0.10    0.02    0.08    0.12    0.07    0.01   -0.05   -0.10
     21       -0.03    0.08    0.14    0.03   -0.03    0.02   -0.10    0.03    0.01
     22       -0.05   -0.10    0.15    0.00    0.01   -0.01   -0.09   -0.03   -0.02
     23        0.10    0.04    0.01    0.02    0.01   -0.00    0.03    0.05    0.16
     24        0.10   -0.04    0.02    0.03   -0.02   -0.01    0.01   -0.10    0.12
     25        0.10   -0.04    0.02   -0.03    0.02    0.01    0.01   -0.10    0.12
     26        0.10    0.04    0.01   -0.02   -0.01    0.00    0.03    0.05    0.16
     27       -0.05   -0.10    0.15   -0.00   -0.01    0.01   -0.09   -0.03   -0.02
     28       -0.03    0.08    0.14   -0.03    0.03   -0.02   -0.10    0.03    0.01
     29        0.03    0.11   -0.02   -0.05   -0.09    0.12   -0.07    0.04   -0.04
     30        0.06    0.01   -0.07   -0.04    0.10   -0.11    0.00    0.13    0.02
     31        0.07   -0.03   -0.05    0.04    0.05    0.11   -0.04   -0.10   -0.03
     32       -0.01   -0.13   -0.02    0.03   -0.06   -0.12   -0.05    0.02   -0.07
     33       -0.01   -0.13   -0.02   -0.03    0.06    0.12   -0.05    0.02   -0.07
     34        0.07   -0.03   -0.05   -0.04   -0.05   -0.11   -0.04   -0.10   -0.03
     35        0.06    0.01   -0.07    0.04   -0.10    0.11    0.00    0.13    0.02
     36        0.03    0.11   -0.02    0.05    0.09   -0.12   -0.07    0.04   -0.04
     37       -0.12    0.06    0.10   -0.01   -0.01   -0.01   -0.05   -0.01   -0.08
[...]
  Atom  AN      X      Y      Z        X      Y      Z        X      Y      Z
     1        -0.02   -0.10   -0.03   -0.03   -0.18    0.03    0.03    0.16    0.05
     2        -0.01    0.10    0.02   -0.01    0.18   -0.03    0.01   -0.16   -0.05
     3        -0.01    0.10    0.02   -0.01    0.18   -0.03    0.01   -0.16   -0.05
     4        -0.02   -0.10   -0.03   -0.03   -0.18    0.03    0.03    0.16    0.05
     5         0.24   -0.01    0.03   -0.05   -0.07   -0.01    0.08   -0.07    0.00
     6        -0.24    0.00    0.03    0.05    0.07    0.00   -0.08    0.07    0.02
     7        -0.24    0.00    0.03    0.05    0.07    0.00   -0.08    0.07    0.02
     8         0.24   -0.01    0.03   -0.05   -0.07   -0.01    0.08   -0.07    0.00
     9         0.00    0.01   -0.02   -0.02    0.00    0.01   -0.04    0.01   -0.02
     10        0.00   -0.00    0.02    0.02   -0.00   -0.01    0.04   -0.00    0.02
     11        0.00   -0.00    0.02    0.02   -0.00   -0.01    0.04   -0.00    0.02
     12        0.00    0.01   -0.02   -0.02    0.00    0.01   -0.04    0.01   -0.02
     13       -0.01    0.01   -0.02    0.01    0.16   -0.13   -0.01   -0.04    0.01
     14        0.02    0.07    0.04    0.01    0.03    0.01   -0.01   -0.09   -0.10
     15       -0.03   -0.02   -0.08    0.02   -0.03    0.01   -0.00    0.12    0.11
     16        0.01   -0.06    0.01   -0.01   -0.13    0.10    0.00    0.03   -0.02
     17        0.01   -0.06    0.01   -0.01   -0.13    0.10    0.00    0.03   -0.02
     18       -0.03   -0.02   -0.08    0.02   -0.03    0.01   -0.00    0.12    0.11
     19        0.02    0.07    0.04    0.01    0.03    0.01   -0.01   -0.09   -0.10
     20       -0.01    0.01   -0.02    0.01    0.16   -0.13   -0.01   -0.04    0.01
     21       -0.11   -0.06   -0.02    0.10    0.24   -0.04   -0.01    0.00   -0.00
     22       -0.10    0.04   -0.03   -0.00    0.02    0.01   -0.10    0.24    0.09
     23        0.10   -0.11   -0.01    0.03   -0.20    0.04    0.06   -0.06   -0.01
     24        0.13    0.13    0.03   -0.04   -0.04   -0.01   -0.04   -0.15   -0.08
     25        0.13    0.13    0.03   -0.04   -0.04   -0.01   -0.04   -0.15   -0.08
     26        0.10   -0.11   -0.01    0.03   -0.20    0.04    0.06   -0.06   -0.01
     27       -0.10    0.04   -0.03   -0.00    0.02    0.01   -0.10    0.24    0.09
     28       -0.11   -0.06   -0.02    0.10    0.24   -0.04   -0.01    0.00   -0.00
     29       -0.12   -0.03   -0.03    0.08    0.05   -0.02    0.04    0.00    0.03
     30        0.11   -0.05   -0.02    0.04   -0.04    0.02    0.10   -0.04   -0.03
     31        0.13    0.04   -0.01   -0.07   -0.02    0.02   -0.05   -0.02   -0.02
     32       -0.13    0.05   -0.05   -0.03    0.01   -0.00   -0.13    0.07    0.00
     33       -0.13    0.05   -0.05   -0.03    0.01   -0.00   -0.13    0.07    0.00
     34        0.13    0.04   -0.01   -0.07   -0.02    0.02   -0.05   -0.02   -0.02
     35        0.11   -0.05   -0.02    0.04   -0.04    0.02    0.10   -0.04   -0.03
     36       -0.12   -0.03   -0.03    0.08    0.05   -0.02    0.04    0.00    0.03
     37        0.01   -0.01    0.01    0.04   -0.17    0.10    0.00    0.05   -0.01
     38       -0.01   -0.07   -0.03   -0.01   -0.03   -0.01   -0.01    0.10    0.09
     39        0.04    0.03    0.07   -0.02    0.03   -0.01   -0.03   -0.13   -0.10
     40       -0.00    0.06   -0.01    0.05    0.14   -0.08   -0.01   -0.03    0.02
     41       -0.00    0.06   -0.01    0.05    0.14   -0.08   -0.01   -0.03    0.02
     42        0.04    0.03    0.07   -0.02    0.03   -0.01   -0.03   -0.13   -0.10
     43       -0.01   -0.07   -0.03   -0.01   -0.03   -0.01   -0.01    0.10    0.09
     44        0.01   -0.01    0.01    0.04   -0.17    0.10    0.00    0.05   -0.01
     45        0.12    0.05   -0.00   -0.12   -0.21    0.10    0.01   -0.01    0.00
     46        0.10   -0.03    0.01    0.00   -0.02   -0.02    0.12   -0.20   -0.14
     47       -0.11    0.10   -0.02   -0.05    0.18   -0.09   -0.07    0.06   -0.01
     48       -0.14   -0.10   -0.07    0.05    0.04    0.02    0.05    0.13    0.11
     49       -0.14   -0.10   -0.07    0.05    0.04    0.02    0.05    0.13    0.11
     50       -0.11    0.10   -0.02   -0.05    0.18   -0.09   -0.07    0.06   -0.01
     51        0.10   -0.03    0.01    0.00   -0.02   -0.02    0.12   -0.20   -0.14
     52        0.12    0.05   -0.00   -0.12   -0.21    0.10    0.01   -0.01    0.00
     53        0.11    0.06    0.05   -0.08   -0.06    0.01   -0.04   -0.01   -0.03
     54       -0.09    0.07    0.03   -0.04    0.04   -0.01   -0.08    0.06    0.04
     55       -0.11   -0.07    0.02    0.06    0.04   -0.02    0.04    0.03    0.02
     56        0.10   -0.08    0.06    0.02   -0.02    0.00    0.11   -0.10    0.01
     57        0.10   -0.08    0.06    0.02   -0.02    0.00    0.11   -0.10    0.01
     58       -0.11   -0.07    0.02    0.06    0.04   -0.02    0.04    0.03    0.02
     59       -0.09    0.07    0.03   -0.04    0.04   -0.01   -0.08    0.06    0.04
     60        0.11    0.06    0.05   -0.08   -0.06    0.01   -0.04   -0.01   -0.03
                      169                      170                      171
                      A                      A                      A
 Frequencies --   1587.1100               1595.0600              1595.8100
 Red. masses --   12.0000                 12.0000               12.0000
 Frc consts  --   17.8092                 17.9881                18.0050
 IR Inten    --   0.0000                 0.0000                0.0000
  Atom  AN      X      Y      Z        X      Y      Z        X      Y      Z
     1         0.01    0.02    0.06   -0.02   -0.09   -0.02    0.01    0.05    0.07
     2         0.00   -0.02   -0.06   -0.01    0.10    0.01    0.01   -0.05   -0.07
     3         0.00   -0.02   -0.06    0.01   -0.10   -0.01   -0.01    0.05    0.07
     4         0.01    0.02    0.06    0.02    0.09    0.02   -0.01   -0.05   -0.07
     5         0.04    0.00    0.01    0.14   -0.01    0.02    0.05    0.05    0.01
     6        -0.04   -0.00    0.01   -0.13    0.01    0.01   -0.05   -0.05    0.00
     7        -0.04   -0.00    0.01    0.13   -0.01   -0.01    0.05    0.05    0.00
     8         0.04    0.00    0.01   -0.14    0.01   -0.02   -0.05   -0.05   -0.01
     9         0.06   -0.05    0.16   -0.05   -0.06    0.22   -0.01    0.01   -0.01
     10       -0.07    0.00   -0.17    0.04   -0.01   -0.23    0.01   -0.01    0.00
     11       -0.07    0.00   -0.17   -0.04    0.01    0.23   -0.01    0.01   -0.00
     12        0.06   -0.05    0.16    0.05    0.06   -0.22    0.01   -0.01    0.01
     13       -0.07    0.06   -0.19    0.01    0.02   -0.01   -0.02   -0.04   -0.01
     14        0.01   -0.01   -0.04   -0.03   -0.01    0.05    0.05   -0.08   -0.23
     15        0.07    0.04    0.22   -0.00   -0.02   -0.02    0.03   -0.00    0.05
     16       -0.01   -0.00    0.01   -0.02    0.01    0.03   -0.06   -0.07    0.18
     17       -0.01   -0.00    0.01    0.02   -0.01   -0.03    0.06    0.07   -0.18
     18        0.07    0.04    0.22    0.00    0.02    0.02   -0.03    0.00   -0.05
     19        0.01   -0.01   -0.04    0.03    0.01   -0.05   -0.05    0.08    0.23
     20       -0.07    0.06   -0.19   -0.01   -0.02    0.01    0.02    0.04    0.01
     21       -0.07   -0.01   -0.03   -0.03    0.04   -0.02   -0.06   -0.08    0.00
     22        0.03    0.04    0.04   -0.03   -0.03   -0.03    0.04   -0.07   -0.02
     23        0.00    0.01   -0.00    0.11   -0.16   -0.00    0.02    0.09   -0.04
     24        0.02    0.00   -0.01    0.13    0.13    0.03    0.04    0.13    0.07
     25        0.02    0.00   -0.01   -0.13   -0.13   -0.03   -0.04   -0.13   -0.07
     26        0.00    0.01   -0.00   -0.11    0.16    0.00   -0.02   -0.09    0.04
     27        0.03    0.04    0.04    0.03    0.03    0.03   -0.04    0.07    0.02
     28       -0.07   -0.01   -0.03    0.03   -0.04    0.02    0.06    0.08   -0.00
     29       -0.19    0.00   -0.14    0.01    0.03   -0.05   -0.13   -0.03   -0.04
     30       -0.03    0.03   -0.02    0.15   -0.03   -0.10    0.11   -0.01   -0.07
     31        0.06    0.03    0.02   -0.17   -0.04    0.10    0.10    0.01   -0.08
     32        0.15   -0.04    0.13    0.01    0.01    0.07   -0.15    0.06   -0.06
     33        0.15   -0.04    0.13   -0.01   -0.01   -0.07    0.15   -0.06    0.06
     34        0.06    0.03    0.02    0.17    0.04   -0.10   -0.10   -0.01    0.08
     35       -0.03    0.03   -0.02   -0.15    0.03    0.10   -0.11    0.01    0.07
     36       -0.19    0.00   -0.14   -0.01   -0.03    0.05    0.13    0.03    0.04
     37        0.11   -0.08    0.16   -0.00   -0.02    0.01    0.02    0.04    0.01
     38       -0.02    0.01    0.03    0.04    0.00   -0.04   -0.10    0.11    0.20
     39       -0.12   -0.06   -0.19    0.01    0.02    0.02   -0.04   -0.00   -0.04
     40        0.01   -0.00   -0.01    0.03   -0.00   -0.03    0.11    0.08   -0.15
     41        0.01   -0.00   -0.01   -0.03    0.00    0.03   -0.11   -0.08    0.15
     42       -0.12   -0.06   -0.19   -0.01   -0.02   -0.02    0.04    0.00    0.04
     43       -0.02    0.01    0.03   -0.04   -0.00    0.04    0.10   -0.11   -0.20
     44        0.11   -0.08    0.16    0.00    0.02   -0.01   -0.02   -0.04   -0.01
     45        0.07    0.00    0.02    0.03   -0.04    0.03    0.06    0.07   -0.03
     46       -0.02   -0.03   -0.04    0.03    0.02    0.03   -0.04    0.06    0.04
     47        0.00   -0.00    0.00   -0.12    0.14   -0.04   -0.01   -0.08    0.05
     48       -0.03    0.00    0.01   -0.14   -0.10   -0.06   -0.05   -0.10   -0.10
     49       -0.03    0.00    0.01    0.14    0.10    0.06    0.05    0.10    0.10
     50        0.00   -0.00    0.00    0.12   -0.14    0.04    0.01    0.08   -0.05
     51       -0.02   -0.03   -0.04   -0.03   -0.02   -0.03    0.04   -0.06   -0.04
     52        0.07    0.00    0.02   -0.03    0.04   -0.03   -0.06   -0.07    0.03
     53        0.17    0.05    0.16   -0.01   -0.03    0.05    0.11    0.06    0.05
     54        0.02   -0.03    0.02   -0.13    0.07    0.12   -0.09    0.04    0.08
     55       -0.06   -0.04   -0.01    0.15    0.08   -0.11   -0.08   -0.03    0.09
     56       -0.12    0.07   -0.14   -0.00   -0.01   -0.07    0.13   -0.10    0.07
     57       -0.12    0.07   -0.14    0.00    0.01    0.07   -0.13    0.10   -0.07
     58       -0.06   -0.04   -0.01   -0.15   -0.08    0.11    0.08    0.03   -0.09
     59        0.02   -0.03    0.02    0.13   -0.07   -0.12    0.09   -0.04   -0.08
     60        0.17    0.05    0.16    0.01    0.03   -0.05   -0.11   -0.06   -0.05
                      169                      170                      171
                      A                      A                      A
 Frequencies --   1587.1100               1595.0600              1595.8100
 Red. masses --   12.0000                 12.0000               12.0000
 Frc consts  --   17.8092                 17.9881                18.0050
 IR Inten    --   0.0000                 0.0000                0.0000
  Atom  AN      X      Y      Z        X      Y      Z        X      Y      Z
     1         0.01    0.02    0.06   -0.02   -0.09   -0.02    0.01    0.05    0.07
     2         0.00   -0.02   -0.06   -0.01    0.10    0.01    0.01   -0.05   -0.07
     3         0.00   -0.02   -0.06    0.01   -0.10   -0.01   -0.01    0.05    0.07
     4         0.01    0.02    0.06    0.02    0.09    0.02   -0.01   -0.05   -0.07
     5         0.04    0.00    0.01    0.14   -0.01    0.02    0.05    0.05    0.01
     6        -0.04   -0.00    0.01   -0.13    0.01    0.01   -0.05   -0.05    0.00
     7        -0.04   -0.00    0.01    0.13   -0.01   -0.01    0.05    0.05    0.00
     8         0.04    0.00    0.01   -0.14    0.01   -0.02   -0.05   -0.05   -0.01
     9         0.06   -0.05    0.16   -0.05   -0.06    0.22   -0.01    0.01   -0.01
     10       -0.07    0.00   -0.17    0.04   -0.01   -0.23    0.01   -0.01    0.00
     11       -0.07    0.00   -0.17   -0.04    0.01    0.23   -0.01    0.01   -0.00
     12        0.06   -0.05    0.16    0.05    0.06   -0.22    0.01   -0.01    0.01
     13       -0.07    0.06   -0.19    0.01    0.02   -0.01   -0.02   -0.04   -0.01
     14        0.01   -0.01   -0.04   -0.03   -0.01    0.05    0.05   -0.08   -0.23
     15        0.07    0.04    0.22   -0.00   -0.02   -0.02    0.03   -0.00    0.05
     16       -0.01   -0.00    0.01   -0.02    0.01    0.03   -0.06   -0.07    0.18
     17       -0.01   -0.00    0.01    0.02   -0.01   -0.03    0.06    0.07   -0.18
     18        0.07    0.04    0.22    0.00    0.02    0.02   -0.03    0.00   -0.05
     19        0.01   -0.01   -0.04    0.03    0.01   -0.05   -0.05    0.08    0.23
     20       -0.07    0.06   -0.19   -0.01   -0.02    0.01    0.02    0.04    0.01
     21       -0.07   -0.01   -0.03   -0.03    0.04   -0.02   -0.06   -0.08    0.00
     22        0.03    0.04    0.04   -0.03   -0.03   -0.03    0.04   -0.07   -0.02
     23        0.00    0.01   -0.00    0.11   -0.16   -0.00    0.02    0.09   -0.04
     24        0.02    0.00   -0.01    0.13    0.13    0.03    0.04    0.13    0.07
     25        0.02    0.00   -0.01   -0.13   -0.13   -0.03   -0.04   -0.13   -0.07
     26        0.00    0.01   -0.00   -0.11    0.16    0.00   -0.02   -0.09    0.04
     27        0.03    0.04    0.04    0.03    0.03    0.03   -0.04    0.07    0.02
     28       -0.07   -0.01   -0.03    0.03   -0.04    0.02    0.06    0.08   -0.00
     29       -0.19    0.00   -0.14    0.01    0.03   -0.05   -0.13   -0.03   -0.04
     30       -0.03    0.03   -0.02    0.15   -0.03   -0.10    0.11   -0.01   -0.07
     31        0.06    0.03    0.02   -0.17   -0.04    0.10    0.10    0.01   -0.08
     32        0.15   -0.04    0.13    0.01    0.01    0.07   -0.15    0.06   -0.06
     33        0.15   -0.04    0.13   -0.01   -0.01   -0.07    0.15   -0.06    0.06
     34        0.06    0.03    0.02    0.17    0.04   -0.10   -0.10   -0.01    0.08
     35       -0.03    0.03   -0.02   -0.15    0.03    0.10   -0.11    0.01    0.07
     36       -0.19    0.00   -0.14   -0.01   -0.03    0.05    0.13    0.03    0.04
     37        0.11   -0.08    0.16   -0.00   -0.02    0.01    0.02    0.04    0.01
     38       -0.02    0.01    0.03    0.04    0.00   -0.04   -0.10    0.11    0.20
     39       -0.12   -0.06   -0.19    0.01    0.02    0.02   -0.04   -0.00   -0.04
     40        0.01   -0.00   -0.01    0.03   -0.00   -0.03    0.11    0.08   -0.15
     41        0.01   -0.00   -0.01   -0.03    0.00    0.03   -0.11   -0.08    0.15
     42       -0.12   -0.06   -0.19   -0.01   -0.02   -0.02    0.04    0.00    0.04
     43       -0.02    0.01    0.03   -0.04   -0.00    0.04    0.10   -0.11   -0.20
     44        0.11   -0.08    0.16    0.00    0.02   -0.01   -0.02   -0.04   -0.01
     45        0.07    0.00    0.02    0.03   -0.04    0.03    0.06    0.07   -0.03
     46       -0.02   -0.03   -0.04    0.03    0.02    0.03   -0.04    0.06    0.04
     47        0.00   -0.00    0.00   -0.12    0.14   -0.04   -0.01   -0.08    0.05
     48       -0.03    0.00    0.01   -0.14   -0.10   -0.06   -0.05   -0.10   -0.10
     49       -0.03    0.00    0.01    0.14    0.10    0.06    0.05    0.10    0.10
     50        0.00   -0.00    0.00    0.12   -0.14    0.04    0.01    0.08   -0.05
     51       -0.02   -0.03   -0.04   -0.03   -0.02   -0.03    0.04   -0.06   -0.04
     52        0.07    0.00    0.02   -0.03    0.04   -0.03   -0.06   -0.07    0.03
     53        0.17    0.05    0.16   -0.01   -0.03    0.05    0.11    0.06    0.05
     54        0.02   -0.03    0.02   -0.13    0.07    0.12   -0.09    0.04    0.08
     55       -0.06   -0.04   -0.01    0.15    0.08   -0.11   -0.08   -0.03    0.09
     56       -0.12    0.07   -0.14   -0.00   -0.01   -0.07    0.13   -0.10    0.07
     57       -0.12    0.07   -0.14    0.00    0.01    0.07   -0.13    0.10   -0.07
     58       -0.06   -0.04   -0.01   -0.15   -0.08    0.11    0.08    0.03   -0.09
     59        0.02   -0.03    0.02    0.13   -0.07   -0.12    0.09   -0.04   -0.08
     60        0.17    0.05    0.16    0.01    0.03   -0.05   -0.11   -0.06   -0.05

 Temperature   298.150000 Kelvin.  Pressure   1.000000 Atm.
 Atom      1.000000 has atomic number  6 and mass  12.000000
 Atom      2.000000 has atomic number  6 and mass  12.000000
 Atom      3.000000 has atomic number  6 and mass  12.000000
 Atom      4.000000 has atomic number  6 and mass  12.000000
 Atom      5.000000 has atomic number  6 and mass  12.000000
 Atom      6.000000 has atomic number  6 and mass  12.000000
 Atom      7.000000 has atomic number  6 and mass  12.000000
 Atom      8.000000 has atomic number  6 and mass  12.000000
 Atom      9.000000 has atomic number  6 and mass  12.000000
 Atom      10.000000 has atomic number  6 and mass  12.000000
 Atom      11.000000 has atomic number  6 and mass  12.000000
 Atom      12.000000 has atomic number  6 and mass  12.000000
 Atom      13.000000 has atomic number  6 and mass  12.000000
 Atom      14.000000 has atomic number  6 and mass  12.000000
 Atom      15.000000 has atomic number  6 and mass  12.000000
 Atom      16.000000 has atomic number  6 and mass  12.000000
 Atom      17.000000 has atomic number  6 and mass  12.000000
 Atom      18.000000 has atomic number  6 and mass  12.000000
 Atom      19.000000 has atomic number  6 and mass  12.000000
 Atom      20.000000 has atomic number  6 and mass  12.000000
 Atom      21.000000 has atomic number  6 and mass  12.000000
 Atom      22.000000 has atomic number  6 and mass  12.000000
 Atom      23.000000 has atomic number  6 and mass  12.000000
 Atom      24.000000 has atomic number  6 and mass  12.000000
 Atom      25.000000 has atomic number  6 and mass  12.000000
 Atom      26.000000 has atomic number  6 and mass  12.000000
 Atom      27.000000 has atomic number  6 and mass  12.000000
 Atom      28.000000 has atomic number  6 and mass  12.000000
 Atom      29.000000 has atomic number  6 and mass  12.000000
 Atom      30.000000 has atomic number  6 and mass  12.000000
 Atom      31.000000 has atomic number  6 and mass  12.000000
 Atom      32.000000 has atomic number  6 and mass  12.000000
 Atom      33.000000 has atomic number  6 and mass  12.000000
 Atom      34.000000 has atomic number  6 and mass  12.000000
 Atom      35.000000 has atomic number  6 and mass  12.000000
 Atom      36.000000 has atomic number  6 and mass  12.000000
 Atom      37.000000 has atomic number  6 and mass  12.000000
 Atom      38.000000 has atomic number  6 and mass  12.000000
 Atom      39.000000 has atomic number  6 and mass  12.000000
 Atom      40.000000 has atomic number  6 and mass  12.000000
 Atom      41.000000 has atomic number  6 and mass  12.000000
 Atom      42.000000 has atomic number  6 and mass  12.000000
 Atom      43.000000 has atomic number  6 and mass  12.000000
 Atom      44.000000 has atomic number  6 and mass  12.000000
 Atom      45.000000 has atomic number  6 and mass  12.000000
 Atom      46.000000 has atomic number  6 and mass  12.000000
 Atom      47.000000 has atomic number  6 and mass  12.000000
 Atom      48.000000 has atomic number  6 and mass  12.000000
 Atom      49.000000 has atomic number  6 and mass  12.000000
 Atom      50.000000 has atomic number  6 and mass  12.000000
 Atom      51.000000 has atomic number  6 and mass  12.000000
 Atom      52.000000 has atomic number  6 and mass  12.000000
 Atom      53.000000 has atomic number  6 and mass  12.000000
 Atom      54.000000 has atomic number  6 and mass  12.000000
 Atom      55.000000 has atomic number  6 and mass  12.000000
 Atom      56.000000 has atomic number  6 and mass  12.000000
 Atom      57.000000 has atomic number  6 and mass  12.000000
 Atom      58.000000 has atomic number  6 and mass  12.000000
 Atom      59.000000 has atomic number  6 and mass  12.000000
 Atom      60.000000 has atomic number  6 and mass  12.000000
