 Entering Gaussian System, Link 0 = g09



 Center     Atomic      Atomic             Coordinates (Angstroms)


       1         1         0     4.702159    -1.655874    -1.382141
       2         6         0     4.163748    -0.930603    -0.777568
       3         6         0     4.867081    -0.005588    -0.006063
       4         1         0     5.954190    -0.010169    -0.009456
       5         6         0     4.176088     0.925239     0.769807
       6         1         0     4.724544     1.645843     1.370956
       7         6         0     2.779763     0.931450     0.775059
       8         1         0     2.249315     1.659479     1.383601
       9         1         0     2.227202    -1.648828    -1.378820
      10         6         0     2.767587    -0.925106    -0.773840
      11         6         0    -0.782256     0.006357     0.006073
      12         6         0    -1.476210    -1.183378     0.230387
      13         6         0    -2.868321    -1.175356     0.222972
      14         6         0    -3.579779    -0.004955    -0.002348
      15         6         0    -2.876250     1.171281    -0.222883
      16         6         0    -1.484092     1.190631    -0.221759
      17         9         0    -3.548857     2.308726    -0.441450
      18         9         0    -3.532912    -2.318492     0.436439
      19         1         0    -0.950087    -2.116118     0.410587
      20         1         0    -4.663139    -0.009452    -0.006301
      21         1         0    -0.964472     2.127415    -0.399785
      22         6         0     2.075633     0.006003     0.002833
      23         6         0     0.646376     0.009957     0.006740
 SCF Done: =  -695.696644870


 incident light, reduced masses

                      1                      2                      3
                      A                      A                      A
 Frequencies --  -307.6800               57.1100              82.3900
 Red. masses --   11.0830                 4.6138               7.0866
 Frc consts  --   0.6182                 0.0089                0.0283
 IR Inten    --   0.0000                 0.0000                0.0000
  Atom  AN      X      Y      Z        X      Y      Z        X      Y      Z
     1        -0.09   -0.05   -0.05    0.00   -0.27    0.32   -0.08   -0.21    0.13
     2        -0.07   -0.02   -0.06    0.00   -0.16    0.20   -0.05   -0.15    0.09
     3        -0.00   -0.05   -0.07    0.01   -0.00    0.00   -0.00   -0.23    0.14
     4        -0.00   -0.12   -0.09    0.01   -0.00    0.00   -0.00   -0.34    0.21
     5         0.07   -0.02   -0.06    0.00    0.16   -0.19    0.05   -0.15    0.09
     6         0.10   -0.05   -0.04    0.00    0.27   -0.32    0.08   -0.21    0.13
     7         0.08   -0.02   -0.04    0.00    0.15   -0.18    0.05    0.01   -0.02
     8         0.08   -0.07    0.02    0.01    0.25   -0.29    0.08    0.07   -0.06
     9        -0.08   -0.09    0.04    0.01   -0.25    0.29   -0.08    0.07   -0.06
     10       -0.08   -0.02   -0.03    0.00   -0.15    0.18   -0.05    0.02   -0.03
     11        0.00   -0.05   -0.11   -0.00    0.00   -0.00    0.00    0.18   -0.12
     12        0.03   -0.04   -0.12   -0.00   -0.02   -0.09    0.11    0.12   -0.08
     13       -0.01   -0.02   -0.06   -0.00   -0.01   -0.07    0.11    0.01    0.01
     14        0.00   -0.03   -0.01    0.00    0.00    0.00    0.00   -0.05    0.06
     15        0.01   -0.02   -0.06   -0.00    0.01    0.07   -0.11    0.01    0.01
     16       -0.03   -0.04   -0.12   -0.00    0.02    0.09   -0.11    0.12   -0.08
     17       -0.01   -0.02   -0.01   -0.01    0.03    0.13   -0.22   -0.05    0.05
     18        0.01   -0.02   -0.01   -0.00   -0.03   -0.13    0.22   -0.05    0.05
     19        0.02   -0.03   -0.03    0.00   -0.03   -0.16    0.19    0.16   -0.12
     20        0.00   -0.03    0.05    0.00    0.00    0.00    0.00   -0.14    0.13
     21       -0.01   -0.03   -0.01   -0.00    0.03    0.16   -0.19    0.16   -0.11
     22        0.00    0.01   -0.01    0.01    0.00    0.00    0.00    0.11   -0.09
     23        0.00    0.41    0.80    0.00    0.00   -0.00    0.00    0.21   -0.16
                      4                      5                      6
                      A                      A                      A
 Frequencies --   148.2100               202.1200              221.8500
 Red. masses --   6.0789                 5.4514               6.7154
 Frc consts  --   0.0787                 0.1312                0.1947
 IR Inten    --   0.0000                 0.0000                0.0000
  Atom  AN      X      Y      Z        X      Y      Z        X      Y      Z
     1        -0.17   -0.07   -0.12   -0.06   -0.09    0.10   -0.19   -0.06    0.08
     2        -0.10   -0.05   -0.07   -0.03   -0.02    0.04   -0.20   -0.04    0.04
     3        -0.00   -0.07   -0.13   -0.00   -0.17    0.18   -0.22    0.00    0.00
     4        -0.00   -0.11   -0.22   -0.00   -0.36    0.36   -0.22    0.00    0.00
     5         0.09   -0.04   -0.08    0.03   -0.02    0.04   -0.20    0.05   -0.04
     6         0.17   -0.06   -0.13    0.06   -0.09    0.10   -0.19    0.07   -0.07
     7         0.09    0.02    0.04    0.04    0.20   -0.15   -0.19   -0.00    0.04
     8         0.17    0.06    0.06    0.06    0.27   -0.22   -0.21   -0.06    0.09
     9        -0.18    0.06    0.06   -0.06    0.27   -0.22   -0.21    0.06   -0.09
     10       -0.10    0.02    0.03   -0.04    0.20   -0.15   -0.19    0.00   -0.04
     11        0.00    0.11    0.28    0.00   -0.12    0.07    0.05   -0.00   -0.01
     12        0.02    0.08    0.26   -0.04   -0.10    0.07    0.10    0.01    0.17
     13        0.04   -0.00    0.00   -0.05   -0.05    0.01    0.12   -0.00    0.01
     14        0.00   -0.04   -0.17    0.00   -0.03   -0.03    0.11    0.00    0.00
     15       -0.03   -0.00    0.00    0.05   -0.05    0.01    0.13    0.00   -0.01
     16       -0.02    0.08    0.25    0.04   -0.10    0.08    0.10   -0.02   -0.19
     17       -0.06   -0.05   -0.16    0.13   -0.01    0.00    0.20    0.05    0.08
     18        0.07   -0.05   -0.16   -0.13   -0.01    0.00    0.19   -0.05   -0.07
     19        0.04    0.10    0.29   -0.07   -0.11    0.11    0.11    0.05    0.34
     20        0.00   -0.11   -0.38    0.00    0.01   -0.07    0.11    0.00    0.01
     21       -0.04    0.10    0.28    0.07   -0.11    0.11    0.11   -0.05   -0.36
     22       -0.00    0.05    0.09    0.00    0.24   -0.18   -0.13    0.00    0.00
     23       -0.00    0.02    0.04    0.00    0.05   -0.01   -0.05   -0.00    0.00
                      7                      8                      9
                      A                      A                      A
 Frequencies --   261.5700               267.2100              296.5600
 Red. masses --   5.2080                 7.1679               4.6811
 Frc consts  --   0.2099                 0.3016                0.2426
 IR Inten    --   0.0000                 0.0000                0.0000
  Atom  AN      X      Y      Z        X      Y      Z        X      Y      Z
     1        -0.07    0.02   -0.02    0.00   -0.00    0.01   -0.28   -0.05   -0.09
     2        -0.09    0.00   -0.02    0.00    0.00    0.00   -0.14   -0.02   -0.01
     3        -0.10    0.00    0.00    0.00   -0.01    0.01    0.00   -0.04   -0.14
     4        -0.10    0.00    0.00    0.00   -0.02    0.03    0.00   -0.06   -0.32
     5        -0.09   -0.00    0.02    0.00    0.00    0.00    0.14   -0.02   -0.02
     6        -0.08   -0.01    0.02    0.00   -0.00    0.00    0.28   -0.05   -0.10
     7        -0.08    0.00    0.01    0.00    0.01   -0.01    0.13    0.10    0.18
     8        -0.10   -0.01   -0.00    0.00    0.01   -0.02    0.27    0.18    0.21
     9        -0.10    0.00    0.00    0.00    0.01   -0.02   -0.27    0.19    0.21
     10       -0.08   -0.01   -0.01    0.00    0.01   -0.01   -0.13    0.11    0.17
     11        0.01    0.00    0.00    0.00    0.00    0.03    0.00   -0.04   -0.05
     12        0.05   -0.07   -0.32   -0.00   -0.01   -0.02   -0.01   -0.06   -0.14
     13        0.06   -0.02   -0.05   -0.01    0.03    0.15   -0.02   -0.04   -0.04
     14        0.06    0.00    0.01   -0.00    0.10    0.52   -0.00   -0.01    0.04
     15        0.06    0.02    0.05    0.00    0.03    0.15    0.01   -0.04   -0.04
     16        0.04    0.07    0.32    0.00   -0.01   -0.03    0.01   -0.06   -0.13
     17        0.08   -0.00   -0.16    0.01   -0.05   -0.25    0.05   -0.01    0.03
     18        0.08    0.00    0.16   -0.01   -0.05   -0.26   -0.06   -0.01    0.03
     19        0.07   -0.10   -0.54   -0.00   -0.05   -0.24   -0.01   -0.07   -0.17
     20        0.06    0.00    0.01   -0.00    0.12    0.62   -0.00    0.02    0.15
     21        0.06    0.10    0.54    0.00   -0.05   -0.26    0.01   -0.07   -0.17
     22       -0.06   -0.00   -0.00    0.00    0.01   -0.01    0.00    0.16    0.21
     23       -0.02    0.00   -0.00    0.00   -0.00    0.01    0.00   -0.03   -0.11
                      10                      11                      12
                      A                      A                      A
 Frequencies --   368.3200               431.4600              448.5800
 Red. masses --   11.2817                 3.0723               5.1496
 Frc consts  --   0.9017                 0.3370                0.6105
 IR Inten    --   0.0000                 0.0000                0.0000
  Atom  AN      X      Y      Z        X      Y      Z        X      Y      Z
     1         0.05    0.05   -0.06   -0.01    0.24   -0.29    0.03   -0.17    0.25
     2         0.07    0.04   -0.02   -0.02    0.12   -0.16    0.01   -0.08    0.12
     3         0.09    0.00   -0.00   -0.04    0.01   -0.01    0.00    0.16   -0.15
     4         0.09    0.00   -0.00   -0.04    0.02   -0.03    0.00    0.34   -0.36
     5         0.07   -0.04    0.02   -0.02   -0.12    0.17   -0.00   -0.05    0.08
     6         0.05   -0.05    0.06   -0.01   -0.26    0.32   -0.03   -0.10    0.18
     7         0.06    0.01   -0.04   -0.01    0.12   -0.15   -0.00   -0.13    0.09
     8         0.09    0.07   -0.09   -0.04    0.29   -0.37   -0.04   -0.27    0.22
     9         0.08   -0.06    0.09   -0.03   -0.32    0.39    0.04   -0.20    0.13
     10        0.06   -0.01    0.05   -0.01   -0.14    0.16    0.00   -0.10    0.05
     11       -0.12   -0.00    0.00   -0.00    0.00   -0.01    0.00    0.03   -0.07
     12       -0.20    0.08   -0.01    0.03   -0.01    0.03    0.06   -0.01    0.07
     13       -0.19   -0.00    0.01    0.03   -0.01    0.06    0.02   -0.06    0.04
     14       -0.32   -0.00   -0.00    0.06   -0.01    0.00   -0.01   -0.08    0.00
     15       -0.19    0.00   -0.01    0.02    0.00   -0.06   -0.03   -0.06    0.05
     16       -0.20   -0.08    0.01    0.02    0.00   -0.02   -0.07   -0.01    0.07
     17        0.30    0.31   -0.05    0.00    0.01    0.02    0.14    0.01   -0.02
     18        0.30   -0.31    0.05   -0.02   -0.01   -0.03   -0.14    0.01   -0.02
     19       -0.26    0.04   -0.02    0.06   -0.01   -0.08    0.12    0.03    0.12
     20       -0.32   -0.00   -0.00    0.06   -0.01   -0.00   -0.01   -0.16   -0.05
     21       -0.26   -0.04    0.02    0.04    0.01    0.10   -0.13    0.03    0.10
     22        0.00    0.00    0.00   -0.01    0.01   -0.01    0.00    0.12   -0.20
     23       -0.06    0.00   -0.00   -0.01    0.02   -0.02    0.00    0.29   -0.13
                      13                      14                      15
                      A                      A                      A
 Frequencies --   536.9700               551.9100              556.5300
 Red. masses --   4.7442                 8.1648               9.7612
 Frc consts  --   0.8060                 1.4653                1.7813
 IR Inten    --   0.0000                 0.0000                0.0000
  Atom  AN      X      Y      Z        X      Y      Z        X      Y      Z
     1         0.02    0.18   -0.24   -0.02   -0.04    0.03   -0.00   -0.06    0.08
     2         0.01    0.06   -0.10   -0.01   -0.01    0.02    0.03   -0.01    0.05
     3         0.00   -0.10    0.13   -0.00    0.01   -0.03    0.08   -0.00    0.00
     4         0.00   -0.20    0.28   -0.00    0.03   -0.06    0.08   -0.00    0.00
     5        -0.01    0.06   -0.10    0.01   -0.01    0.02    0.03    0.01   -0.05
     6        -0.02    0.18   -0.24    0.02   -0.04    0.04   -0.00    0.06   -0.08
     7        -0.02    0.00   -0.02    0.01    0.02    0.01    0.01   -0.06    0.02
     8        -0.01    0.09   -0.12    0.01    0.01    0.03    0.06   -0.07    0.06
     9         0.02    0.09   -0.12   -0.01    0.01    0.03    0.06    0.07   -0.06
     10        0.02    0.01   -0.02   -0.01    0.01    0.01    0.02    0.06   -0.01
     11        0.00    0.15   -0.02    0.00   -0.25   -0.02   -0.15   -0.00    0.00
     12        0.15    0.02   -0.00    0.17   -0.28    0.07    0.06   -0.18    0.05
     13        0.12   -0.09    0.02    0.22    0.09   -0.00    0.05   -0.27    0.10
     14        0.00   -0.15    0.02   -0.00   -0.01    0.00    0.32    0.00    0.00
     15       -0.12   -0.09    0.02   -0.22    0.09   -0.00    0.05    0.27   -0.10
     16       -0.15    0.02   -0.01   -0.17   -0.28    0.07    0.06    0.17   -0.05
     17        0.15    0.05   -0.01   -0.13    0.23   -0.05   -0.16    0.31   -0.04
     18       -0.15    0.05   -0.01    0.13    0.24   -0.05   -0.15   -0.31    0.04
     19        0.30    0.10   -0.05    0.04   -0.34    0.13    0.31   -0.06   -0.06
     20        0.00   -0.36    0.06    0.00   -0.41    0.04    0.31    0.00    0.00
     21       -0.30    0.10   -0.05   -0.05   -0.34    0.13    0.31    0.06    0.06
     22        0.00   -0.16    0.19    0.00    0.04   -0.02   -0.06    0.00    0.00
     23        0.00    0.08   -0.04    0.00   -0.07    0.01   -0.10    0.00   -0.00
                      16                      17                      18
                      A                      A                      A
 Frequencies --   619.7600               645.3200              663.4900
 Red. masses --   5.0948                 6.3719               5.4344
 Frc consts  --   1.1530                 1.5634                1.4095
 IR Inten    --   0.0000                 0.0000                0.0000
  Atom  AN      X      Y      Z        X      Y      Z        X      Y      Z
     1         0.04   -0.10    0.15   -0.17    0.11   -0.04    0.07    0.05   -0.09
     2         0.02   -0.04    0.05    0.02    0.15    0.08   -0.02   -0.04   -0.07
     3         0.01    0.06   -0.05    0.28   -0.00   -0.00   -0.14    0.00   -0.00
     4         0.01    0.11   -0.09    0.27   -0.00   -0.00   -0.14    0.00   -0.00
     5        -0.02   -0.04    0.05    0.02   -0.15   -0.08   -0.02    0.04    0.08
     6        -0.05   -0.11    0.16   -0.17   -0.11    0.05    0.08   -0.05    0.10
     7        -0.01   -0.01   -0.05   -0.02   -0.08   -0.13    0.01    0.10    0.02
     8        -0.02   -0.06   -0.01    0.18    0.03   -0.08   -0.08    0.07   -0.01
     9         0.03   -0.07    0.00    0.17   -0.03    0.08   -0.08   -0.07    0.01
     10        0.01   -0.01   -0.04   -0.02    0.08    0.13    0.01   -0.10   -0.03
     11       -0.00    0.14    0.45   -0.15   -0.00   -0.02    0.11    0.00   -0.01
     12        0.04   -0.01   -0.11   -0.01   -0.05    0.03    0.02    0.02    0.04
     13        0.06   -0.06   -0.17    0.04   -0.03   -0.24   -0.02   -0.10   -0.32
     14        0.00   -0.03    0.05    0.06   -0.00   -0.00   -0.03   -0.00   -0.00
     15       -0.06   -0.05   -0.15    0.04    0.03    0.25   -0.03    0.10    0.33
     16       -0.04   -0.01   -0.11   -0.01    0.05   -0.03    0.02   -0.01   -0.04
     17        0.02    0.04    0.04    0.05   -0.09   -0.04   -0.06    0.07   -0.09
     18       -0.02    0.04    0.04    0.05    0.09    0.04   -0.06   -0.07    0.08
     19        0.10   -0.02   -0.34    0.03    0.04    0.39   -0.01    0.09    0.52
     20        0.00   -0.05    0.50    0.07   -0.00   -0.02   -0.03   -0.01   -0.01
     21       -0.10   -0.02   -0.37    0.03   -0.03   -0.36   -0.01   -0.08   -0.51
     22       -0.01    0.04   -0.10   -0.22    0.00    0.00    0.15    0.00   -0.00
     23       -0.01   -0.07    0.05   -0.23   -0.00    0.00    0.15   -0.01    0.00
                      19                      20                      21
                      A                      A                      A
 Frequencies --   675.9000               713.2900              751.5000
 Red. masses --   6.4454                 4.1432               2.7613
 Frc consts  --   1.7349                 1.2420                0.9188
 IR Inten    --   0.0000                 0.0000                0.0000
  Atom  AN      X      Y      Z        X      Y      Z        X      Y      Z
     1        -0.13    0.32    0.11    0.03    0.13   -0.23    0.01    0.04   -0.07
     2        -0.26    0.21    0.11    0.04    0.04   -0.12    0.01    0.04   -0.06
     3         0.00    0.08    0.14    0.00   -0.08    0.09    0.00   -0.04    0.05
     4        -0.00   -0.25   -0.07    0.00   -0.11    0.24    0.00   -0.10    0.16
     5         0.26    0.21    0.11   -0.04    0.04   -0.12   -0.01    0.04   -0.06
     6         0.13    0.32    0.11   -0.03    0.14   -0.23   -0.01    0.04   -0.07
     7         0.23   -0.17   -0.11   -0.04   -0.07    0.08   -0.01   -0.04    0.05
     8         0.10   -0.22   -0.17   -0.04   -0.08    0.11   -0.02   -0.12    0.13
     9        -0.10   -0.22   -0.17    0.04   -0.08    0.11    0.02   -0.12    0.13
     10       -0.23   -0.17   -0.11    0.04   -0.06    0.08    0.01   -0.04    0.05
     11        0.00   -0.02    0.03    0.00   -0.07    0.10    0.00   -0.01    0.15
     12       -0.01   -0.02    0.00   -0.04   -0.08    0.06   -0.01   -0.05   -0.10
     13       -0.01    0.01   -0.02   -0.05    0.00   -0.17   -0.02    0.05    0.17
     14        0.00    0.02    0.01    0.00    0.09    0.07    0.00   -0.00   -0.12
     15        0.01    0.01   -0.02    0.05    0.01   -0.15    0.02    0.05    0.17
     16        0.01   -0.02    0.00    0.04   -0.08    0.06    0.01   -0.05   -0.10
     17       -0.01    0.00    0.00   -0.04   -0.01    0.02   -0.01   -0.00   -0.01
     18        0.01    0.00    0.00    0.04   -0.01    0.02    0.01   -0.00   -0.01
     19       -0.03   -0.04    0.00   -0.15   -0.11    0.23   -0.04   -0.13   -0.43
     20        0.00    0.04    0.05   -0.00    0.28    0.48    0.00   -0.05   -0.56
     21        0.03   -0.03    0.00    0.15   -0.11    0.20    0.04   -0.14   -0.43
     22       -0.00   -0.13   -0.07   -0.00    0.00    0.02   -0.00    0.04   -0.04
     23       -0.00    0.01   -0.08   -0.00    0.28   -0.14    0.00    0.09   -0.04
                      22                      23                      24
                      A                      A                      A
 Frequencies --   786.2200               852.3400              900.7300
 Red. masses --   2.6826                 7.6749               1.3780
 Frc consts  --   0.9770                 3.2851                0.6587
 IR Inten    --   0.0000                 0.0000                0.0000
  Atom  AN      X      Y      Z        X      Y      Z        X      Y      Z
     1         0.03    0.08   -0.09   -0.37    0.12    0.00   -0.01   -0.36    0.43
     2         0.01   -0.08    0.09   -0.12    0.18    0.14   -0.01    0.01   -0.02
     3         0.00    0.05   -0.04    0.18   -0.00    0.00    0.00    0.06   -0.06
     4         0.00    0.32   -0.34    0.17    0.00   -0.00    0.00   -0.32    0.38
     5        -0.01   -0.08    0.09   -0.13   -0.18   -0.14    0.01    0.01   -0.02
     6        -0.03    0.09   -0.09   -0.37   -0.11   -0.01    0.00   -0.36    0.43
     7        -0.00    0.04   -0.09   -0.08   -0.12   -0.12   -0.01    0.03   -0.05
     8        -0.01    0.31   -0.42    0.02   -0.10   -0.06   -0.01   -0.14    0.16
     9         0.01    0.32   -0.42    0.03    0.10    0.05    0.01   -0.14    0.16
     10        0.01    0.04   -0.09   -0.08    0.12    0.12    0.01    0.04   -0.05
     11       -0.00   -0.02    0.07    0.40    0.00    0.00    0.00   -0.00    0.01
     12       -0.01   -0.05   -0.02    0.12    0.11   -0.06    0.00   -0.01    0.00
     13       -0.03    0.02    0.03   -0.02    0.03    0.05   -0.01    0.01    0.00
     14        0.00    0.03   -0.03   -0.17    0.00    0.00    0.00    0.01   -0.00
     15        0.03    0.02    0.03   -0.02   -0.03   -0.05    0.01    0.01    0.00
     16        0.01   -0.05   -0.02    0.12   -0.11    0.06   -0.00   -0.02   -0.00
     17       -0.01   -0.01    0.00   -0.09    0.10   -0.01   -0.00   -0.01    0.00
     18        0.01   -0.01    0.00   -0.09   -0.11    0.01    0.00   -0.01    0.00
     19       -0.06   -0.09   -0.08   -0.01    0.06    0.09   -0.01   -0.02    0.01
     20        0.00    0.08   -0.11   -0.18    0.00   -0.00    0.00    0.04   -0.01
     21        0.06   -0.09   -0.09   -0.00   -0.06   -0.08    0.01   -0.02    0.02
     22       -0.00   -0.14    0.17   -0.05    0.00    0.00   -0.00   -0.07    0.10
     23       -0.00    0.17   -0.07    0.21    0.00   -0.00    0.00    0.04   -0.03
                      25                      26                      27
                      A                      A                      A
 Frequencies --   932.6700               956.7000              959.6900
 Red. masses --   1.3307                 1.5517               1.5259
 Frc consts  --   0.6820                 0.8368                0.8280
 IR Inten    --   0.0000                 0.0000                0.0000
  Atom  AN      X      Y      Z        X      Y      Z        X      Y      Z
     1         0.01    0.01   -0.01    0.00    0.00   -0.00   -0.01   -0.09    0.10
     2         0.00   -0.00   -0.00    0.00    0.00    0.00   -0.00    0.01   -0.01
     3         0.00    0.00    0.00    0.00    0.00    0.00   -0.01    0.00    0.00
     4         0.00    0.01   -0.00    0.00    0.00    0.00   -0.01    0.00   -0.00
     5        -0.00   -0.00   -0.00   -0.00    0.00    0.00   -0.00   -0.01    0.01
     6        -0.01    0.01   -0.01   -0.00   -0.00    0.00   -0.01    0.09   -0.10
     7         0.00   -0.00   -0.00    0.00    0.00    0.00    0.01   -0.03    0.00
     8         0.00   -0.00   -0.00    0.00   -0.00    0.00    0.00    0.04   -0.10
     9        -0.00   -0.00   -0.00   -0.00    0.00   -0.00    0.00   -0.04    0.10
     10        0.00   -0.01   -0.00   -0.00   -0.00    0.00    0.01    0.03    0.00
     11        0.00    0.02    0.06    0.00    0.01    0.03    0.01    0.00    0.00
     12       -0.00   -0.02   -0.09   -0.01   -0.01   -0.07    0.01    0.06    0.11
     13        0.01   -0.01    0.00    0.01    0.01    0.09    0.00   -0.01   -0.07
     14        0.00    0.02    0.09    0.00   -0.03   -0.14    0.00   -0.00   -0.00
     15       -0.01   -0.01   -0.00   -0.01    0.01    0.09    0.00    0.01    0.08
     16        0.01   -0.02   -0.09    0.01   -0.01   -0.06    0.01   -0.06   -0.11
     17        0.00    0.00    0.00    0.00   -0.00   -0.02   -0.01    0.00   -0.02
     18        0.00    0.00    0.00    0.00   -0.00   -0.02   -0.01   -0.00    0.02
     19       -0.00    0.11    0.57   -0.01    0.07    0.38    0.03   -0.07   -0.65
     20        0.00   -0.11   -0.53   -0.00    0.14    0.81   -0.00    0.00    0.02
     21       -0.00    0.11    0.57    0.00    0.07    0.35    0.03    0.07    0.68
     22        0.00    0.00   -0.00    0.00    0.00   -0.00   -0.02    0.00   -0.00
     23        0.00   -0.00   -0.01    0.00   -0.01   -0.00    0.01   -0.00    0.00
                      28                      29                      30
                      A                      A                      A
 Frequencies --   992.1600               1053.0700              1064.9500
 Red. masses --   1.2517                 5.7035               4.2454
 Frc consts  --   0.7259                 3.7265                2.8368
 IR Inten    --   0.0000                 0.0000                0.0000
  Atom  AN      X      Y      Z        X      Y      Z        X      Y      Z
     1        -0.02    0.33   -0.39   -0.05    0.10   -0.02   -0.01    0.03   -0.02
     2        -0.01   -0.04    0.06   -0.04    0.03    0.05   -0.00    0.01    0.01
     3         0.02    0.00    0.00   -0.18    0.00    0.00   -0.01   -0.01    0.01
     4         0.02    0.00    0.00   -0.19    0.00    0.00   -0.01    0.04   -0.07
     5        -0.01    0.04   -0.06   -0.04   -0.03   -0.05   -0.00   -0.00    0.00
     6        -0.02   -0.33    0.39   -0.04   -0.10    0.02    0.00    0.02   -0.04
     7        -0.01    0.05   -0.05    0.09   -0.12   -0.11    0.01    0.01   -0.01
     8        -0.03   -0.29    0.34    0.07   -0.20   -0.06    0.00   -0.04    0.05
     9        -0.03    0.29   -0.34    0.07    0.20    0.06    0.01   -0.04    0.06
     10       -0.01   -0.05    0.05    0.09    0.12    0.11    0.00    0.01    0.00
     11       -0.02    0.00    0.00   -0.06   -0.00    0.00   -0.00    0.06   -0.01
     12       -0.00   -0.01    0.03   -0.17    0.26   -0.07    0.20   -0.08    0.01
     13       -0.00   -0.00   -0.01   -0.01   -0.03    0.00    0.06    0.10   -0.02
     14       -0.00    0.00    0.00    0.33   -0.01    0.00    0.00    0.30   -0.06
     15       -0.00    0.00    0.01   -0.01    0.02   -0.00   -0.06    0.10   -0.02
     16       -0.00    0.01   -0.03   -0.15   -0.25    0.07   -0.20   -0.08    0.01
     17        0.00   -0.00   -0.00    0.00    0.00    0.00    0.06   -0.13    0.03
     18        0.00    0.00    0.00    0.01    0.00   -0.00   -0.06   -0.13    0.02
     19       -0.00   -0.04   -0.16   -0.12    0.34    0.14    0.32   -0.01    0.03
     20       -0.00    0.00    0.00    0.35   -0.01    0.00    0.00    0.70   -0.10
     21       -0.00    0.04    0.16   -0.11   -0.34   -0.14   -0.34   -0.01    0.04
     22        0.03    0.00    0.00    0.05   -0.00   -0.00    0.01    0.01   -0.02
     23        0.01    0.00    0.00    0.07   -0.00   -0.00    0.00   -0.06    0.03
                      31                      32                      33
                      A                      A                      A
 Frequencies --   1067.5200               1087.7700              1113.5100
 Red. masses --   5.7413                 5.2366               1.3641
 Frc consts  --   3.8549                 3.6507                0.9965
 IR Inten    --   0.0000                 0.0000                0.0000
  Atom  AN      X      Y      Z        X      Y      Z        X      Y      Z
     1         0.00   -0.11   -0.21   -0.08   -0.03    0.35   -0.08    0.05   -0.10
     2         0.07   -0.13   -0.09   -0.10    0.18    0.08   -0.03   -0.01    0.02
     3         0.29   -0.00   -0.00    0.19    0.00   -0.00    0.00   -0.05    0.07
     4         0.31   -0.00   -0.01    0.19   -0.00    0.00    0.00    0.28   -0.41
     5         0.07    0.13    0.09   -0.10   -0.17   -0.08    0.03   -0.01    0.02
     6         0.01    0.11    0.21   -0.08    0.03   -0.35    0.08    0.06   -0.11
     7        -0.14    0.14    0.12   -0.10    0.14    0.12   -0.03    0.06   -0.07
     8        -0.21    0.12    0.11   -0.10    0.15    0.11   -0.09   -0.39    0.42
     9        -0.21   -0.12   -0.11   -0.10   -0.15   -0.12    0.09   -0.39    0.42
     10       -0.14   -0.14   -0.12   -0.11   -0.14   -0.12    0.03    0.06   -0.07
     11        0.07    0.00   -0.00   -0.07   -0.00    0.00    0.00    0.00    0.00
     12       -0.01    0.24   -0.05   -0.13   -0.04    0.03   -0.01   -0.00    0.00
     13        0.03    0.02   -0.00   -0.04   -0.03    0.01   -0.00   -0.00    0.00
     14        0.12    0.01   -0.00    0.16   -0.00    0.00    0.00   -0.01    0.00
     15        0.02   -0.01    0.00   -0.03    0.03   -0.01    0.00   -0.00    0.00
     16       -0.02   -0.24    0.05   -0.12    0.04   -0.03    0.01    0.00    0.00
     17       -0.03    0.03   -0.01    0.03   -0.03    0.01   -0.00    0.00   -0.00
     18       -0.03   -0.04    0.01    0.03    0.03   -0.01    0.00    0.00   -0.00
     19        0.08    0.31   -0.00   -0.26   -0.15   -0.11   -0.02   -0.01    0.00
     20        0.12    0.02   -0.00    0.17   -0.01    0.00    0.00   -0.02    0.00
     21        0.06   -0.31    0.00   -0.26    0.15    0.11    0.02   -0.01    0.00
     22       -0.17    0.00    0.00    0.26   -0.00    0.00    0.00   -0.02    0.04
     23       -0.08   -0.00    0.00    0.13    0.00   -0.00    0.00    0.01   -0.01
                      34                      35                      36
                      A                      A                      A
 Frequencies --   1130.2300               1153.0300              1153.1200
 Red. masses --   1.9169                 1.6731               1.5742
 Frc consts  --   1.4427                 1.3106                1.2333
 IR Inten    --   0.0000                 0.0000                0.0000
  Atom  AN      X      Y      Z        X      Y      Z        X      Y      Z
     1        -0.30   -0.36   -0.02    0.32   -0.18    0.40    0.09    0.14   -0.20
     2        -0.01   -0.07   -0.10    0.09    0.05   -0.06    0.05   -0.06    0.01
     3         0.09   -0.00   -0.00   -0.02   -0.02    0.05    0.03   -0.02    0.04
     4         0.11   -0.01    0.00   -0.02    0.36   -0.07    0.03    0.27   -0.06
     5        -0.01    0.07    0.10   -0.08   -0.04   -0.00   -0.07    0.06   -0.06
     6        -0.29    0.36    0.02   -0.17    0.10   -0.10   -0.28   -0.20    0.43
     7        -0.03   -0.06   -0.09    0.11    0.04   -0.06    0.07   -0.06    0.03
     8        -0.33   -0.33   -0.05    0.34   -0.17    0.38    0.19    0.26   -0.26
     9        -0.32    0.33    0.04   -0.27    0.22   -0.16   -0.27   -0.22    0.42
     10       -0.03    0.06    0.09   -0.10   -0.05    0.02   -0.09    0.05   -0.06
     11       -0.00    0.00    0.00   -0.01   -0.00   -0.01    0.02   -0.00   -0.00
     12       -0.03   -0.05    0.01    0.02    0.02   -0.00   -0.02   -0.03    0.01
     13       -0.01   -0.01   -0.00    0.01    0.00    0.00   -0.01   -0.00   -0.00
     14        0.03    0.00    0.00   -0.02   -0.00    0.00    0.03   -0.00    0.00
     15       -0.01    0.01    0.00    0.01   -0.00   -0.00   -0.01    0.00    0.00
     16       -0.03    0.05   -0.01    0.02   -0.02    0.01   -0.02    0.03   -0.01
     17        0.01   -0.01    0.00   -0.01    0.00   -0.00    0.01   -0.00    0.00
     18        0.01    0.01   -0.00   -0.01   -0.00    0.00    0.01    0.01   -0.00
     19       -0.10   -0.09    0.02    0.08    0.06   -0.01   -0.11   -0.08    0.00
     20        0.03    0.00    0.00   -0.02   -0.00    0.00    0.03   -0.00    0.00
     21       -0.11    0.09   -0.02    0.09   -0.06   -0.00   -0.11    0.07   -0.01
     22        0.06    0.00   -0.00   -0.01    0.00    0.02    0.01    0.00    0.02
     23        0.06    0.00    0.00   -0.03    0.00   -0.01    0.03    0.00   -0.00
                      37                      38                      39
                      A                      A                      A
 Frequencies --   1169.0600               1207.9900              1219.0600
 Red. masses --   1.3752                 1.9043               2.1289
 Frc consts  --   1.1073                 1.6373                1.8641
 IR Inten    --   0.0000                 0.0000                0.0000
  Atom  AN      X      Y      Z        X      Y      Z        X      Y      Z
     1         0.10    0.30   -0.33    0.12   -0.02    0.06   -0.21   -0.16   -0.10
     2         0.03   -0.06    0.05    0.03   -0.01   -0.02   -0.09   -0.08   -0.07
     3         0.00    0.08   -0.07   -0.03    0.00    0.00    0.00    0.15    0.13
     4         0.00   -0.28    0.55   -0.04    0.01    0.01    0.01    0.68    0.51
     5        -0.03   -0.06    0.05    0.04    0.00    0.02    0.09   -0.08   -0.07
     6        -0.10    0.30   -0.33    0.12    0.01   -0.07    0.20   -0.16   -0.09
     7         0.04    0.01   -0.04    0.01    0.02   -0.01   -0.03   -0.05   -0.03
     8         0.14   -0.13    0.21    0.16   -0.01    0.16    0.08    0.04   -0.06
     9        -0.14   -0.13    0.21    0.16    0.00   -0.17   -0.09    0.04   -0.05
     10       -0.04    0.01   -0.04    0.01   -0.02    0.01    0.03   -0.05   -0.03
     11        0.00    0.00   -0.00    0.17    0.00    0.00   -0.00   -0.01   -0.01
     12        0.00    0.00    0.00   -0.06   -0.05    0.01    0.01    0.01    0.00
     13        0.00    0.00    0.00   -0.01    0.02   -0.01   -0.00    0.01   -0.00
     14        0.00   -0.00    0.00    0.10    0.00    0.00   -0.00   -0.00    0.00
     15        0.00    0.00    0.00   -0.01   -0.02    0.01    0.00    0.01   -0.00
     16        0.00    0.00    0.00   -0.06    0.05   -0.01   -0.01    0.00    0.00
     17        0.00    0.00    0.00   -0.00    0.01   -0.00    0.00   -0.00    0.00
     18        0.00    0.00    0.00   -0.00   -0.01    0.00   -0.00   -0.00    0.00
     19       -0.01   -0.00   -0.00   -0.53   -0.32    0.01    0.03    0.01   -0.00
     20        0.00   -0.00    0.00    0.11    0.00    0.00   -0.00   -0.01    0.01
     21        0.00   -0.00   -0.00   -0.53    0.32   -0.01   -0.01    0.01   -0.00
     22        0.00    0.01    0.01   -0.14    0.00    0.00    0.00    0.10    0.06
     23        0.00    0.00   -0.01   -0.01    0.00    0.00    0.00   -0.02    0.01
                      40                      41                      42
                      A                      A                      A
 Frequencies --   1237.3800               1253.1200              1293.1300
 Red. masses --   6.0143                 1.7753               1.1954
 Frc consts  --   5.4256                 1.6425                1.1777
 IR Inten    --   0.0000                 0.0000                0.0000
  Atom  AN      X      Y      Z        X      Y      Z        X      Y      Z
     1        -0.02   -0.01   -0.01   -0.00   -0.00   -0.00   -0.43   -0.20   -0.14
     2        -0.01   -0.01   -0.01   -0.00   -0.00    0.00   -0.06   -0.02   -0.02
     3         0.00    0.01    0.01    0.00    0.00    0.00    0.01    0.00    0.00
     4         0.00    0.06    0.05    0.00    0.01    0.01    0.01   -0.00   -0.00
     5         0.01   -0.01   -0.01    0.00   -0.00    0.00   -0.06    0.02    0.02
     6         0.02   -0.01   -0.01    0.00   -0.00   -0.00   -0.42    0.20    0.14
     7        -0.00   -0.00    0.00    0.00    0.00    0.00    0.06    0.03    0.01
     8         0.01    0.01   -0.01    0.00   -0.00    0.00    0.43    0.17    0.18
     9        -0.01    0.01   -0.01   -0.00   -0.00    0.00    0.43   -0.17   -0.19
     10        0.00   -0.00    0.00    0.00    0.00    0.00    0.06   -0.03   -0.01
     11       -0.00    0.26   -0.09    0.00    0.01   -0.00   -0.01    0.00    0.00
     12       -0.23   -0.10    0.03    0.02   -0.02    0.01   -0.00    0.00    0.00
     13        0.28   -0.15    0.04   -0.07   -0.13    0.03   -0.00   -0.00    0.00
     14       -0.00    0.21   -0.04    0.00   -0.01    0.00   -0.00    0.00    0.00
     15       -0.28   -0.16    0.04    0.07   -0.13    0.03   -0.00    0.00   -0.00
     16        0.23   -0.09    0.03   -0.02   -0.02    0.01   -0.00   -0.00    0.00
     17        0.01    0.00   -0.00   -0.04    0.07   -0.01    0.00   -0.00    0.00
     18       -0.01    0.00   -0.00    0.04    0.07   -0.01    0.00    0.00    0.00
     19       -0.41   -0.21   -0.06    0.30    0.13   -0.02    0.03    0.02   -0.01
     20       -0.00    0.31   -0.10   -0.00    0.84   -0.15   -0.00    0.00    0.00
     21        0.41   -0.21   -0.05   -0.30    0.12   -0.02    0.03   -0.02    0.01
     22        0.00    0.01   -0.01    0.00    0.00   -0.00   -0.00    0.00    0.00
     23        0.00    0.01    0.02    0.00   -0.01    0.00    0.01    0.00    0.00
                      43                      44                      45
                      A                      A                      A
 Frequencies --   1360.2400               1380.1000              1431.3300
 Red. masses --   1.6339                 4.8514               1.3219
 Frc consts  --   1.7812                 5.4442                1.5957
 IR Inten    --   0.0000                 0.0000                0.0000
  Atom  AN      X      Y      Z        X      Y      Z        X      Y      Z
     1         0.47    0.20    0.16   -0.15   -0.04   -0.04   -0.01   -0.00   -0.00
     2        -0.06   -0.04   -0.03   -0.02    0.01    0.01   -0.00    0.00    0.00
     3         0.00    0.05    0.04   -0.01    0.00    0.00    0.00    0.00    0.00
     4        -0.00   -0.42   -0.37   -0.01   -0.00   -0.00    0.00   -0.01   -0.01
     5         0.06   -0.04   -0.03   -0.02   -0.01   -0.01    0.00    0.00    0.00
     6        -0.47    0.21    0.16   -0.15    0.04    0.04    0.01   -0.00   -0.00
     7        -0.08   -0.05   -0.04    0.03    0.00    0.01   -0.00    0.00    0.00
     8         0.14    0.06    0.03   -0.11   -0.04   -0.08    0.03    0.02    0.01
     9        -0.14    0.06    0.03   -0.11    0.04    0.09   -0.03    0.02    0.01
     10        0.08   -0.05   -0.04    0.03   -0.00   -0.01    0.00    0.00    0.00
     11        0.00   -0.00   -0.01   -0.11    0.00    0.00    0.00    0.01    0.00
     12       -0.00    0.00    0.00    0.05    0.05   -0.01    0.08    0.04   -0.01
     13        0.00   -0.00    0.00    0.19    0.24   -0.04    0.01    0.01   -0.00
     14        0.00    0.00   -0.00   -0.01    0.00    0.00    0.00   -0.10    0.02
     15       -0.00    0.00    0.00    0.19   -0.24    0.04   -0.01    0.01   -0.00
     16        0.00    0.00    0.00    0.05   -0.05    0.01   -0.08    0.04   -0.01
     17        0.00    0.00    0.00   -0.07    0.10   -0.02    0.01    0.00    0.00
     18        0.00    0.00    0.00   -0.07   -0.10    0.02   -0.01    0.00    0.00
     19        0.01    0.01   -0.00   -0.48   -0.23    0.03   -0.52   -0.28    0.06
     20        0.00    0.01    0.00    0.01   -0.00    0.00   -0.00    0.49   -0.09
     21       -0.00    0.00   -0.00   -0.48    0.22   -0.03    0.53   -0.28    0.06
     22        0.00    0.12    0.09    0.19    0.00    0.00    0.00   -0.00   -0.01
     23        0.00   -0.01    0.01   -0.20    0.00    0.00    0.00   -0.01    0.00
                      46                      47                      48
                      A                      A                      A
 Frequencies --   1455.2700               1514.5100              1568.4800
 Red. masses --   1.3625                 7.7987               3.8991
 Frc consts  --   1.7001                 10.5394                5.6516
 IR Inten    --   0.0000                 0.0000                0.0000
  Atom  AN      X      Y      Z        X      Y      Z        X      Y      Z
     1        -0.20   -0.07   -0.06    0.28    0.08    0.07    0.06    0.03    0.03
     2        -0.01    0.01    0.01   -0.01   -0.03   -0.03   -0.02   -0.00   -0.00
     3         0.00    0.04    0.03    0.04    0.00    0.00    0.00   -0.01   -0.01
     4        -0.00   -0.16   -0.14    0.05    0.00    0.00    0.00    0.07    0.05
     5         0.01    0.01    0.01   -0.01    0.03    0.03    0.02   -0.00   -0.00
     6         0.20   -0.07   -0.06    0.28   -0.09   -0.07   -0.06    0.03    0.03
     7        -0.07    0.01    0.00   -0.07   -0.02   -0.03   -0.00    0.01    0.01
     8         0.53    0.27    0.23    0.24    0.10    0.11   -0.02    0.01   -0.01
     9        -0.53    0.28    0.24    0.24   -0.10   -0.11    0.02    0.01   -0.01
     10        0.07    0.01    0.00   -0.07    0.03    0.03    0.00    0.01    0.01
     11        0.00    0.01    0.01   -0.33   -0.01    0.00   -0.00    0.33   -0.07
     12       -0.00   -0.01    0.00   -0.02   -0.06    0.01    0.09   -0.12    0.03
     13       -0.00   -0.00   -0.00    0.07    0.23   -0.04   -0.21   -0.04    0.00
     14        0.00    0.01   -0.00    0.03    0.00    0.00    0.00    0.07   -0.01
     15        0.01   -0.00    0.00    0.06   -0.23    0.04    0.21   -0.05    0.01
     16        0.00   -0.00    0.00   -0.02    0.07   -0.01   -0.09   -0.12    0.03
     17       -0.00    0.00    0.00   -0.03    0.06   -0.01   -0.03    0.03   -0.01
     18        0.00    0.00    0.00   -0.03   -0.06    0.01    0.03    0.03   -0.01
     19        0.02    0.01   -0.00    0.15    0.05    0.01   -0.21   -0.33    0.07
     20        0.00   -0.03    0.00    0.05    0.01   -0.00    0.00   -0.62    0.12
     21       -0.02    0.01   -0.00    0.15   -0.04   -0.01    0.22   -0.33    0.07
     22       -0.00   -0.10   -0.09   -0.27    0.00    0.00   -0.00    0.00   -0.02
     23        0.00    0.01    0.00    0.53    0.00   -0.00    0.00   -0.04    0.02
                      49                      50                      51
                      A                      A                      A
 Frequencies --   1590.3200               1604.2600              1645.0700
 Red. masses --   1.8116                 3.1781               2.0525
 Frc consts  --   2.6995                 4.8191                3.2726
 IR Inten    --   0.0000                 0.0000                0.0000
  Atom  AN      X      Y      Z        X      Y      Z        X      Y      Z
     1         0.39    0.23    0.18    0.09    0.03    0.02    0.43    0.14    0.11
     2        -0.12   -0.01   -0.00   -0.01   -0.01   -0.01   -0.07   -0.07   -0.06
     3        -0.00   -0.09   -0.08    0.01    0.00    0.00    0.07    0.00    0.00
     4         0.00    0.50    0.41    0.02   -0.00   -0.00    0.10   -0.00    0.00
     5         0.12   -0.01   -0.00   -0.01    0.01    0.01   -0.07    0.07    0.06
     6        -0.39    0.24    0.19    0.09   -0.03   -0.02    0.43   -0.14   -0.11
     7        -0.04    0.05    0.04   -0.02   -0.01   -0.01   -0.09   -0.08   -0.06
     8         0.02    0.09    0.08    0.08    0.03    0.02    0.44    0.15    0.10
     9        -0.01    0.09    0.08    0.08   -0.03   -0.03    0.44   -0.15   -0.11
     10        0.04    0.05    0.04   -0.02    0.01    0.01   -0.09    0.08    0.06
     11        0.00   -0.02    0.01   -0.14    0.00   -0.00    0.03    0.00    0.00
     12       -0.01    0.01   -0.00    0.04    0.10   -0.02   -0.00   -0.00    0.00
     13        0.01    0.00   -0.00    0.14   -0.20    0.04   -0.01    0.01   -0.00
     14       -0.00   -0.01    0.00   -0.15    0.00   -0.00    0.01    0.00    0.00
     15       -0.01    0.00   -0.00    0.14    0.20   -0.04   -0.01   -0.01    0.00
     16        0.01    0.01   -0.00    0.04   -0.10    0.02   -0.00    0.00   -0.00
     17        0.00   -0.00    0.00   -0.00   -0.03    0.01    0.00    0.00    0.00
     18       -0.00   -0.00    0.00   -0.00    0.03   -0.01    0.00   -0.00    0.00
     19        0.01    0.02   -0.00   -0.56   -0.23    0.05    0.04    0.02   -0.01
     20       -0.00    0.03   -0.01   -0.19   -0.00    0.00    0.01    0.00    0.00
     21       -0.02    0.02   -0.00   -0.56    0.22   -0.05    0.04   -0.02    0.01
     22        0.00   -0.10   -0.09   -0.02    0.00    0.00    0.14    0.00    0.00
     23        0.00    0.01   -0.00    0.09    0.00    0.00   -0.07    0.00    0.00
                      52                      53                      54
                      A                      A                      A
 Frequencies --   1734.9400               1738.0500              1752.3500
 Red. masses --   4.3385                 5.4645               4.5365
 Frc consts  --   7.6941                 9.7258                8.2074
 IR Inten    --   0.0000                 0.0000                0.0000
  Atom  AN      X      Y      Z        X      Y      Z        X      Y      Z
     1        -0.33   -0.22   -0.18   -0.07   -0.05   -0.04    0.24   -0.04   -0.04
     2         0.26    0.05    0.04    0.05    0.01    0.01   -0.04   -0.14   -0.12
     3        -0.15    0.00    0.00   -0.03    0.00    0.00    0.00    0.25    0.20
     4        -0.18    0.00    0.00   -0.04   -0.00   -0.00   -0.00   -0.44   -0.37
     5         0.26   -0.05   -0.04    0.05   -0.01   -0.01    0.03   -0.14   -0.12
     6        -0.33    0.22    0.18   -0.07    0.05    0.04   -0.24   -0.04   -0.04
     7        -0.23   -0.05   -0.04   -0.05   -0.01   -0.00    0.12    0.14    0.11
     8         0.28    0.20    0.14    0.06    0.05    0.03   -0.33   -0.04   -0.03
     9         0.27   -0.20   -0.14    0.07   -0.05   -0.03    0.33   -0.05   -0.03
     10       -0.23    0.05    0.04   -0.05    0.01    0.01   -0.11    0.14    0.11
     11        0.01    0.00    0.00   -0.16   -0.00    0.00    0.00    0.01    0.01
     12       -0.05   -0.01    0.00    0.29    0.08   -0.01   -0.01   -0.00    0.00
     13        0.05   -0.00    0.00   -0.28    0.03   -0.01    0.00    0.01   -0.00
     14       -0.02   -0.00    0.00    0.14    0.00    0.00   -0.00   -0.01    0.00
     15        0.05    0.01   -0.00   -0.28   -0.03    0.01    0.00    0.01   -0.00
     16       -0.05    0.01   -0.00    0.29   -0.08    0.01    0.00   -0.00    0.00
     17       -0.00    0.00    0.00    0.02   -0.01    0.00    0.00   -0.00    0.00
     18       -0.00   -0.00    0.00    0.02    0.01   -0.00    0.00   -0.00    0.00
     19        0.07    0.06   -0.02   -0.40   -0.33    0.06    0.01    0.01    0.00
     20       -0.02    0.00   -0.00    0.15   -0.00    0.00   -0.00    0.02   -0.01
     21        0.06   -0.05    0.02   -0.40    0.32   -0.07   -0.01    0.00    0.00
     22        0.12    0.00    0.00    0.03   -0.00   -0.00   -0.00   -0.19   -0.15
     23        0.02    0.00    0.00    0.00    0.00    0.00    0.00    0.00   -0.01
                      55                      56                      57
                      A                      A                      A
 Frequencies --   1766.4400               3240.4400              3249.7600
 Red. masses --   5.3793                 1.0878               1.0918
 Frc consts  --   9.8894                 6.7297                6.7937
 IR Inten    --   0.0000                 0.0000                0.0000
  Atom  AN      X      Y      Z        X      Y      Z        X      Y      Z
     1         0.01   -0.00   -0.00   -0.26    0.35    0.29   -0.30    0.40    0.34
     2        -0.00   -0.00   -0.00    0.02   -0.03   -0.03    0.03   -0.04   -0.03
     3         0.00    0.01    0.01   -0.05    0.00    0.00    0.00    0.00    0.00
     4         0.00   -0.01   -0.01    0.59   -0.00   -0.00   -0.00   -0.01   -0.00
     5         0.00   -0.00   -0.00    0.02    0.03    0.03   -0.03   -0.04   -0.03
     6        -0.01   -0.00    0.00   -0.27   -0.35   -0.29    0.30    0.40    0.34
     7         0.00    0.00    0.00    0.01   -0.01   -0.01   -0.01    0.02    0.02
     8        -0.01   -0.00    0.00   -0.10    0.14    0.12    0.17   -0.24   -0.20
     9         0.01   -0.00    0.00   -0.10   -0.14   -0.12   -0.18   -0.24   -0.20
     10       -0.00    0.01    0.00    0.01    0.01    0.01    0.01    0.02    0.02
     11        0.00   -0.24    0.05    0.00    0.00    0.00    0.00    0.00    0.00
     12        0.13    0.17   -0.03    0.00    0.00    0.00    0.00    0.00    0.00
     13       -0.01   -0.24    0.05    0.00    0.00    0.00    0.00    0.00    0.00
     14       -0.00    0.35   -0.07    0.00    0.00    0.00    0.00    0.00    0.00
     15        0.01   -0.24    0.05    0.00    0.00    0.00    0.00    0.00    0.00
     16       -0.13    0.17   -0.04    0.00    0.00    0.00    0.00    0.00    0.00
     17       -0.01    0.03   -0.01    0.00    0.00    0.00    0.00    0.00    0.00
     18        0.01    0.03   -0.01    0.00    0.00    0.00    0.00    0.00    0.00
     19       -0.34   -0.09    0.02   -0.00    0.01    0.00   -0.00    0.00   -0.00
     20        0.00   -0.58    0.11   -0.00    0.00    0.00    0.00    0.00    0.00
     21        0.34   -0.09    0.02   -0.00   -0.01    0.00    0.00    0.00   -0.00
     22        0.00   -0.01   -0.00    0.00    0.00    0.00    0.00   -0.00   -0.00
     23       -0.00    0.02   -0.01    0.00    0.00    0.00    0.00    0.00    0.00
                      58                      59                      60
                      A                      A                      A
 Frequencies --   3259.9800               3260.6500              3261.5600
 Red. masses --   1.0928                 1.0929               1.0951
 Frc consts  --   6.8428                 6.8461                6.8638
 IR Inten    --   0.0000                 0.0000                0.0000
  Atom  AN      X      Y      Z        X      Y      Z        X      Y      Z
     1         0.00   -0.00   -0.00    0.00   -0.00   -0.00    0.06   -0.09   -0.08
     2         0.00    0.00    0.00    0.00    0.00    0.00   -0.00    0.01    0.01
     3         0.00    0.00    0.00    0.00    0.00    0.00   -0.06    0.00    0.00
     4        -0.01    0.00    0.00   -0.00    0.00    0.00    0.63   -0.00   -0.00
     5         0.00    0.00    0.00    0.00    0.00    0.00   -0.00   -0.01   -0.01
     6         0.00    0.00    0.00   -0.00   -0.01   -0.00    0.07    0.11    0.09
     7         0.00    0.00    0.00    0.00    0.00    0.00   -0.02    0.03    0.03
     8        -0.00    0.00    0.00    0.00    0.00    0.00    0.25   -0.34   -0.29
     9        -0.00   -0.00   -0.00   -0.00   -0.00   -0.00    0.27    0.35    0.30
     10        0.00    0.00    0.00    0.00    0.00    0.00   -0.02   -0.03   -0.03
     11        0.00    0.00    0.00    0.00    0.01   -0.00    0.00    0.00    0.00
     12        0.03   -0.06    0.01    0.03   -0.05    0.01    0.00   -0.00    0.00
     13       -0.00   -0.00    0.00   -0.00   -0.00    0.00    0.00    0.00    0.00
     14        0.00    0.00    0.00    0.00    0.00    0.00    0.00    0.00    0.00
     15       -0.00    0.00    0.00    0.00   -0.00    0.00    0.00    0.00    0.00
     16        0.03    0.05   -0.01   -0.03   -0.06    0.01    0.00    0.00    0.00
     17        0.00    0.00    0.00    0.00    0.00    0.00    0.00    0.00    0.00
     18        0.00    0.00    0.00    0.00    0.00    0.00    0.00    0.00    0.00
     19       -0.39    0.67   -0.13   -0.30    0.52   -0.10   -0.00    0.01   -0.00
     20        0.00    0.00    0.00    0.00   -0.00    0.00   -0.00    0.00    0.00
     21       -0.29   -0.53    0.10    0.38    0.68   -0.12    0.00    0.00   -0.00
     22        0.00    0.00    0.00    0.00    0.00    0.00   -0.00    0.00    0.00
     23        0.00    0.00    0.00    0.00   -0.00    0.00    0.00    0.00    0.00
                      58                      59                      60
                      A                      A                      A
 Frequencies --   3259.9800               3260.6500              3261.5600
 Red. masses --   1.0928                 1.0929               1.0951
 Frc consts  --   6.8428                 6.8461                6.8638
 IR Inten    --   0.0000                 0.0000                0.0000
  Atom  AN      X      Y      Z        X      Y      Z        X      Y      Z
     1         0.00   -0.00   -0.00    0.00   -0.00   -0.00    0.06   -0.09   -0.08
     2         0.00    0.00    0.00    0.00    0.00    0.00   -0.00    0.01    0.01
     3         0.00    0.00    0.00    0.00    0.00    0.00   -0.06    0.00    0.00
     4        -0.01    0.00    0.00   -0.00    0.00    0.00    0.63   -0.00   -0.00
     5         0.00    0.00    0.00    0.00    0.00    0.00   -0.00   -0.01   -0.01
     6         0.00    0.00    0.00   -0.00   -0.01   -0.00    0.07    0.11    0.09
     7         0.00    0.00    0.00    0.00    0.00    0.00   -0.02    0.03    0.03
     8        -0.00    0.00    0.00    0.00    0.00    0.00    0.25   -0.34   -0.29
     9        -0.00   -0.00   -0.00   -0.00   -0.00   -0.00    0.27    0.35    0.30
     10        0.00    0.00    0.00    0.00    0.00    0.00   -0.02   -0.03   -0.03
     11        0.00    0.00    0.00    0.00    0.01   -0.00    0.00    0.00    0.00
     12        0.03   -0.06    0.01    0.03   -0.05    0.01    0.00   -0.00    0.00
     13       -0.00   -0.00    0.00   -0.00   -0.00    0.00    0.00    0.00    0.00
     14        0.00    0.00    0.00    0.00    0.00    0.00    0.00    0.00    0.00
     15       -0.00    0.00    0.00    0.00   -0.00    0.00    0.00    0.00    0.00
     16        0.03    0.05   -0.01   -0.03   -0.06    0.01    0.00    0.00    0.00
     17        0.00    0.00    0.00    0.00    0.00    0.00    0.00    0.00    0.00
     18        0.00    0.00    0.00    0.00    0.00    0.00    0.00    0.00    0.00
     19       -0.39    0.67   -0.13   -0.30    0.52   -0.10   -0.00    0.01   -0.00
     20        0.00    0.00    0.00    0.00   -0.00    0.00   -0.00    0.00    0.00
     21       -0.29   -0.53    0.10    0.38    0.68   -0.12    0.00    0.00   -0.00
     22        0.00    0.00    0.00    0.00    0.00    0.00   -0.00    0.00    0.00
     23        0.00    0.00    0.00    0.00   -0.00    0.00    0.00    0.00    0.00

 Temperature   298.150000 Kelvin.  Pressure   1.000000 Atm.
 Atom      1.000000 has atomic number  1 and mass  1.007830
 Atom      2.000000 has atomic number  6 and mass  12.000000
 Atom      3.000000 has atomic number  6 and mass  12.000000
 Atom      4.000000 has atomic number  1 and mass  1.007830
 Atom      5.000000 has atomic number  6 and mass  12.000000
 Atom      6.000000 has atomic number  1 and mass  1.007830
 Atom      7.000000 has atomic number  6 and mass  12.000000
 Atom      8.000000 has atomic number  1 and mass  1.007830
 Atom      9.000000 has atomic number  1 and mass  1.007830
 Atom      10.000000 has atomic number  6 and mass  12.000000
 Atom      11.000000 has atomic number  6 and mass  12.000000
 Atom      12.000000 has atomic number  6 and mass  12.000000
 Atom      13.000000 has atomic number  6 and mass  12.000000
 Atom      14.000000 has atomic number  6 and mass  12.000000
 Atom      15.000000 has atomic number  6 and mass  12.000000
 Atom      16.000000 has atomic number  6 and mass  12.000000
 Atom      17.000000 has atomic number  9 and mass  18.998400
 Atom      18.000000 has atomic number  9 and mass  18.998400
 Atom      19.000000 has atomic number  1 and mass  1.007830
 Atom      20.000000 has atomic number  1 and mass  1.007830
 Atom      21.000000 has atomic number  1 and mass  1.007830
 Atom      22.000000 has atomic number  6 and mass  12.000000
 Atom      23.000000 has atomic number  6 and mass  12.000000
