 Entering Gaussian System, Link 0 = g09



 Center     Atomic      Atomic             Coordinates (Angstroms)


       1         1          0         4.690478    -1.071824    -1.868437
       2         6          0         4.156619    -0.606712    -1.058761
       3         6          0         4.867689    -0.005203    -0.006038
       4         1          0         5.942756    -0.009394    -0.009180
       5         6          0         4.167487     0.601831     1.050804
       6         1          0         4.709689     1.062733     1.857337
       7         6          0         2.776554     0.613111     1.065092
       8         1          0         2.245100     1.078509     1.875454
       9         1          0         2.225790    -1.068202    -1.872222
      10         6          0         2.765570    -0.607111    -1.064897
      11         6          0        -0.735532     0.005825     0.003264
      12         6          0        -1.468967    -1.064669     0.613815
      13         6          0        -2.849563    -1.033722     0.591374
      14         6          0        -3.586271    -0.005189     0.000017
      15         6          0        -2.856159     1.029034    -0.589606
      16         6          0        -1.475801     1.070712    -0.608774
      17         9          0        -3.536065     2.023370    -1.161258
      18         9          0        -3.523075    -2.033369     1.161328
      19         1          0        -0.956968    -1.882341     1.084023
      20         1          0        -4.658858    -0.009342    -0.001244
      21         1          0        -0.969038     1.892433    -1.077582
      22         6          0         2.029832     0.005813     0.002345
      23         6          0         0.646044     0.012171     0.006185
 SCF Done: =  -695.807743598
