                  Welcome to Q-Chem
     A Quantum Leap Into The Future Of Chemistry


 Q-Chem 6.0 (devel), Q-Chem, Inc., Pleasanton, CA (2022)

 E. Epifanovsky,  A. T. B. Gilbert,  Xintian Feng,  Joonho Lee,  Yuezhi Mao,  
 N. Mardirossian,  P. Pokhilko,  A. White,  M. Wormit,  M. P. Coons,  
 A. L. Dempwolff,  Zhengting Gan,  D. Hait,  P. R. Horn,  L. D. Jacobson,  
 I. Kaliman,  J. Kussmann,  A. W. Lange,  Ka Un Lao,  D. S. Levine,  Jie Liu,  
 S. C. McKenzie,  A. F. Morrison,  K. Nanda,  F. Plasser,  D. R. Rehn,  
 M. L. Vidal,  Zhi-Qiang You,  Ying Zhu,  B. Alam,  B. Albrecht,  
 A. Aldossary,  E. Alguire,  J. H. Andersen,  V. Athavale,  D. Barton,  
 K. Begam,  A. Behn,  N. Bellonzi,  Y. A. Bernard,  E. J. Berquist,  
 H. Burton,  A. Carreras,  K. Carter-Fenk,  Romit Chakraborty,  
 Chandrima Chakravarty,  Junhan Chen,  A. D. Chien,  K. D. Closser,  
 V. Cofer-Shabica,  L. Cunha,  S. Dasgupta,  Jia Deng,  M. de Wergifosse,  
 M. Diedenhofen,  Hainam Do,  S. Ehlert,  Po-Tung Fang,  S. Fatehi,  
 Qingguo Feng,  T. Friedhoff,  B. Ganoe,  J. Gayvert,  Qinghui Ge,  
 G. Gidofalvi,  M. Goldey,  J. Gomes,  C. Gonzalez-Espinoza,  S. Gulania,  
 A. Gunina,  J. A. Gyamfi,  M. W. D. Hanson-Heine,  P. H. P. Harbach,  
 A. W. Hauser,  M. F. Herbst,  M. Hernandez Vera,  M. Hodecker,  
 Z. C. Holden,  S. Houck,  Xunkun Huang,  Kerwin Hui,  B. C. Huynh,  
 K. Ikeda,  M. Ivanov,  Hyunjun Ji,  Zuxin Jin,  Hanjie Jiang,  B. Kaduk,  
 S. Kaehler,  R. Kang,  K. Khistyaev,  Jaehoon Kim,  Yongbin Kim,  
 P. Klunzinger,  Z. Koczor-Benda,  Joong Hoon Koh,  D. Kosenkov,  
 Saikiran Kotaru,  L. Koulias,  T. Kowalczyk,  C. M. Krauter,  K. Kue,  
 A. Kunitsa,  T. Kus,  A. Landau,  K. V. Lawler,  D. Lefrancois,  S. Lehtola,  
 Rain Li,  Shaozhi Li,  Yi-Pei Li,  Jiashu Liang,  M. Liebenthal,  
 Hung-Hsuan Lin,  You-Sheng Lin,  Fenglai Liu,  Kuan-Yu Liu,  
 M. Loipersberger,  A. Luenser,  C. Malbon,  A. Manjanath,  P. Manohar,  
 E. Mansoor,  S. F. Manzer,  Shan-Ping Mao,  A. V. Marenich,  T. Markovich,  
 S. Mason,  F. Matz,  S. A. Maurer,  P. F. McLaughlin,  M. F. S. J. Menger,  
 J.-M. Mewes,  S. A. Mewes,  P. Morgante,  Mohammad Mostafanejad,  
 J. W. Mullinax,  K. J. Oosterbaan,  G. Paran,  V. Parravicini,  
 Alexander C. Paul,  Suranjan K. Paul,  F. Pavosevic,  Zheng Pei,  S. Prager,  
 E. I. Proynov,  E. Ramos,  B. Rana,  A. E. Rask,  A. Rettig,  R. M. Richard,  
 F. Rob,  E. Rossomme,  T. Scheele,  M. Scheurer,  M. Schneider,  
 P. E. Schneider,  N. Sergueev,  S. M. Sharada,  Hengyuan Shen,  
 W. Skomorowski,  D. W. Small,  C. J. Stein,  Yingli Su,  Yu-Chuan Su,  
 E. J. Sundstrom,  Zhen Tao,  J. Thirman,  Hung-Yi Tsai,  T. Tsuchimochi,  
 N. M. Tubman,  C. Utku,  S. P. Veccham,  O. Vydrov,  J. Wenzel,  
 Jonathan Wong,  J. Witte,  A. Yamada,  Chou-Hsun Yang,  Kun Yao,  
 S. Yeganeh,  S. R. Yost,  A. Zech,  F. Zeller,  Igor Ying Zhang,  
 Xing Zhang,  Yu Zhang,  D. Zuev,  A. Aspuru-Guzik,  A. T. Bell,  
 N. A. Besley,  K. B. Bravaya,  B. R. Brooks,  D. Casanova,  Jeng-Da Chai,  
 Hsing-Ta Chen,  S. Coriani,  C. J. Cramer,  A. E. DePrince, III,  
 R. A. DiStasio Jr.,  A. Dreuw,  B. D. Dunietz,  T. R. Furlani,  
 W. A. Goddard III,  S. Grimme,  S. Hammes-Schiffer,  T. Head-Gordon,  
 W. J. Hehre,  Chao-Ping Hsu,  T.-C. Jagau,  Yousung Jung,  A. Klamt,  
 Jing Kong,  D. S. Lambrecht,  Xiangyuan Li,  WanZhen Liang,  N. J. Mayhall,  
 C. W. McCurdy,  J. B. Neaton,  T. Neudecker,  C. Ochsenfeld,  
 J. A. Parkhill,  R. Peverati,  V. A. Rassolov,  Haisheng Ren,  Yihan Shao,  
 L. V. Slipchenko,  R. P. Steele,  J. E. Subotnik,  A. J. W. Thom,  
 A. Tkatchenko,  D. G. Truhlar,  T. Van Voorhis,  Fan Wang,  
 T. A. Wesolowski,  K. B. Whaley,  H. L. Woodcock III,  P. M. Zimmerman,  
 S. Faraji,  P. M. W. Gill,  M. Head-Gordon,  J. M. Herbert,  A. I. Krylov

 Contributors to earlier versions of Q-Chem not listed above: 
 R. D. Adamson,  B. Austin,  R. Baer,  J. Baker,  G. J. O. Beran,  
 K. Brandhorst,  S. T. Brown,  E. F. C. Byrd,  Arup K. Chakraborty,  
 G. K. L. Chan,  Chun-Min Chang,  Yunqing Chen,  C.-L. Cheng,  
 Siu Hung Chien,  D. M. Chipman,  D. L. Crittenden,  H. Dachsel,  
 R. J. Doerksen,  A. D. Dutoi,  R. G. Edgar,  J. Fosso-Tande,  
 L. Fusti-Molnar,  D. Ghosh,  A. Ghysels,  A. Golubeva-Zadorozhnaya,  
 J. Gonthier,  M. S. Gordon,  S. R. Gwaltney,  G. Hawkins,  J. E. Herr,  
 A. Heyden,  S. Hirata,  E. G. Hohenstein,  G. Kedziora,  F. J. Keil,  
 C. Kelley,  Jihan Kim,  R. A. King,  R. Z. Khaliullin,  P. P. Korambath,  
 W. Kurlancheek,  A. Laurent,  A. M. Lee,  M. S. Lee,  S. V. Levchenko,  
 Ching Yeh Lin,  D. Liotard,  E. Livshits,  R. C. Lochan,  I. Lotan,  
 L. A. Martinez-Martinez,  P. E. Maslen,  N. Nair,  D. P. O'Neill,  
 D. Neuhauser,  E. Neuscamman,  C. M. Oana,  R. Olivares-Amaya,  R. Olson,  
 T. M. Perrine,  B. Peters,  P. A. Pieniazek,  A. Prociuk,  Y. M. Rhee,  
 J. Ritchie,  M. A. Rohrdanz,  E. Rosta,  N. J. Russ,  H. F. Schaefer III,  
 M. W. Schmidt,  N. E. Schultz,  S. Sharma,  N. Shenvi,  C. D. Sherrill,  
 A. C. Simmonett,  A. Sodt,  T. Stein,  D. Stuck,  K. S. Thanthiriwatte,  
 V. Vanovschi,  L. Vogt,  Tao Wang,  A. Warshel,  M. A. Watson,  
 C. F. Williams,  Q. Wu,  X. Xu,  Jun Yang,  W. Zhang,  Yan Zhao

   Please cite Q-Chem as follows:
  "Software for the frontiers of quantum chemistry:
   An overview of developments in the Q-Chem 5 package"
   J. Chem. Phys. 155, 084801 (2021)
   https://doi.org/10.1063/5.0055522 (open access)

 Q-Chem 6.0.1 for Intel X86 EM64T Linux

 Parts of Q-Chem use Armadillo 9.900.5 (Nocturnal Misbehaviour).
 http://arma.sourceforge.net/

 Q-Chem begins on Mon Dec 12 16:54:06 2022  

 Host: node4.as.kent.edu
0

     Scratch files written to /home/eholder/active_projects/fe@c60/c60/reproduce-attempt/6-31Gtest/opt//
 Processing $rem in /data/dunietz/eholder/qchem/config/preferences:
 Processing $rem in /home/eholder/.qchemrc:

 Checking the input file for inconsistencies... 	...done.

--------------------------------------------------------------
User input:
--------------------------------------------------------------
$molecule
read opt.txt
$end

$rem
jobtype               freq
exchange              b3lyp
correlation           none
basis                 6-31G
scf_convergence       8
max_scf_cycles        5000
mem_static            8000
mem_total             80000
iqmol_fchk            true
$end
--------------------------------------------------------------
 Atom  12: (  0.2440989517,  3.3650127337,  1.1101962295)
         ->(  0.2440989519,  3.3650127346,  1.1101962352)
 Atom  19: ( -2.9254048422,  1.7634209403, -0.9715125057)
         ->( -2.9254048421,  1.7634209337, -0.9715125096)
 Atom  26: (  1.5038660116,  0.7015174885,  3.1397044521)
         ->(  1.5038660067,  0.7015174907,  3.1397044531)
 Atom  36: ( -0.9607623025,  2.9141395958,  1.7877944486)
         ->( -0.9607622999,  2.9141395970,  1.7877944543)
 Atom  41: ( -2.6457453270, -0.2621639207, -2.3542390525)
         ->( -2.6457453252, -0.2621639173, -2.3542390582)
 Atom  52: ( -0.5636793809,  2.0216496591,  2.8646706825)
         ->( -0.5636793780,  2.0216496656,  2.8646706834)
 Atom  50: (  0.8868927838,  1.9204613762,  2.8524356641)
         ->(  0.8868927786,  1.9204613838,  2.8524356650)
 ----------------------------------------------------------------
             Standard Nuclear Orientation (Angstroms)
    I     Atom           X                Y                Z
 ----------------------------------------------------------------
    1      C       3.4250443907    -0.9336751641    -0.1129221820
    2      C       3.5229072072     0.4490034452     0.0543188856
    3      C      -3.5229072073    -0.4490034449    -0.0543188823
    4      C      -3.4250443926     0.9336751634     0.1129221853
    5      C       0.6963880073     0.3696025948    -3.4632166053
    6      C      -0.6963683089     0.4667577890    -3.4514692453
    7      C       0.6963683115    -0.4667577868     3.4514692460
    8      C      -0.6963880078    -0.3696025932     3.4632166061
    9      C      -0.2440989519    -3.3650127346    -1.1101962352
   10      C      -0.2441028948    -3.5326658944     0.2758915559
   11      C       0.2441028951     3.5326658943    -0.2758915545
   12      C       0.2440989519     3.3650127346     1.1101962352
   13      C       2.9254114844    -1.4809411303    -1.3639150970
   14      C       2.9254048421    -1.7634209337     0.9715125096
   15      C       3.1251666422     1.3413482116    -1.0225467550
   16      C       3.1251599942     1.0588684081     1.3128808520
   17      C      -3.1251599938    -1.0588684091    -1.3128808506
   18      C      -3.1251666422    -1.3413482086     1.0225467556
   19      C      -2.9254048421     1.7634209337    -0.9715125096
   20      C      -2.9254114856     1.4809411335     1.3639150959
   21      C       1.3389934858    -0.8998282581    -3.1636828737
   22      C       1.5038831620     1.4298555960    -2.8818973361
   23      C      -1.5038660067    -0.7015174907    -3.1397044531
   24      C      -1.3389763416     1.6281663629    -2.8579189132
   25      C       1.3389763421    -1.6281663618     2.8579189142
   26      C       1.5038660067     0.7015174907     3.1397044531
   27      C      -1.5038831601    -1.4298555937     2.8818973380
   28      C      -1.3389934887     0.8998282550     3.1636828735
   29      C       0.9607622999    -2.9141395970    -1.7877944543
   30      C      -1.3859011376    -2.7504422297    -1.7680012456
   31      C       0.9607542509    -3.2563490457     1.0414533342
   32      C      -1.3859091903    -3.0926516745     1.0612465388
   33      C       1.3859091895     3.0926516754    -1.0612465408
   34      C      -0.9607542525     3.2563490462    -1.0414533336
   35      C       1.3859011370     2.7504422284     1.7680012422
   36      C      -0.9607622999     2.9141395970     1.7877944543
   37      C       2.5438330688    -0.6241759178    -2.3980111493
   38      C       2.5438200399    -1.1779123632     2.1800554817
   39      C       2.6457583603     0.8159003586    -2.2238275798
   40      C       2.6457453252     0.2621639173     2.3542390582
   41      C      -2.6457453252    -0.2621639173    -2.3542390582
   42      C      -2.6457583618    -0.8159003569     2.2238275786
   43      C      -2.5438200379     1.1779123674    -2.1800554806
   44      C      -2.5438330670     0.6241759167     2.3980111536
   45      C       0.5636793780    -2.0216496656    -2.8646706834
   46      C       0.8869074921     2.5451573412    -2.3122952321
   47      C      -0.8868927786    -1.9204613838    -2.8524356650
   48      C      -0.5636646767     2.6463456301    -2.3000602127
   49      C       0.5636646773    -2.6463456302     2.3000602121
   50      C       0.8868927786     1.9204613838     2.8524356650
   51      C      -0.8869074891    -2.5451573417     2.3122952314
   52      C      -0.5636793780     2.0216496656     2.8646706834
   53      C       2.1177235054    -2.6491530285    -1.0527936476
   54      C      -2.4823680987    -2.3282621523    -1.0139936366
   55      C       2.1177193991    -2.8237657719     0.3908331307
   56      C      -2.4823722097    -2.5028748910     0.4296331380
   57      C       2.4823722120     2.5028748908    -0.4296331385
   58      C      -2.1177194037     2.8237657727    -0.3908331297
   59      C       2.4823680997     2.3282621524     1.0139936337
   60      C      -2.1177235084     2.6491530298     1.0527936438
 ----------------------------------------------------------------
 Molecular Point Group                 Ci    NOp =  2
 Largest Abelian Subgroup              Ci    NOp =  2
 Nuclear Repulsion Energy =        8323.49484080 hartrees
 There are      180 alpha and      180 beta electrons
 Requested basis set is 6-31G
 There are 180 shells and 540 basis functions

 Total QAlloc Memory Limit  80000 MB
 Mega-Array Size      7821 MB
 MEM_STATIC part      8000 MB

 A cutoff of  1.0D-12 yielded  10830 shell pairs
 There are    119190 function pairs
 Smallest overlap matrix eigenvalue = 4.08E-04
 Guess from superposition of atomic densities
 Warning:  Energy on first SCF cycle will be non-variational
 SAD guess density has 360.000001 electrons

 -----------------------------------------------------------------------
  General SCF calculation program by
  Eric Jon Sundstrom, Paul Horn, Yuezhi Mao, Dmitri Zuev, Alec White,
  David Stuck, Shaama M.S., Shane Yost, Joonho Lee, David Small,
  Daniel Levine, Susi Lehtola, Hugh Burton, Evgeny Epifanovsky,
  Bang C. Huynh
 -----------------------------------------------------------------------
 Exchange:     0.2000 Hartree-Fock + 0.0800 Slater + 0.7200 B88
 Correlation:  0.1900 VWN1RPA + 0.8100 LYP
 Using SG-1 standard quadrature grid
 using 8 threads for integral computing
 -------------------------------------------------------
 OpenMP Integral computing Module                
 Release: version 1.0, May 2013, Q-Chem Inc. Pittsburgh 
 -------------------------------------------------------
 A restricted SCF calculation will be
 performed using DIIS
 SCF converges when DIIS error is below 1.0e-08
 ---------------------------------------
  Cycle       Energy         DIIS error
 ---------------------------------------
    1   -2306.9505217426      4.79e-02  
    2   -2285.4193160682      1.94e-03  
    3   -2285.5436662568      1.01e-03  
    4   -2285.5847818834      2.75e-04  
    5   -2285.5878959834      2.05e-05  
    6   -2285.5879152884      3.52e-06  
    7   -2285.5879153618      3.28e-06  
    8   -2285.5879158240      7.35e-07  
    9   -2285.5879158458      2.27e-07  
   10   -2285.5879158489      3.35e-08  
   11   -2285.5879158496      8.13e-09  Convergence criterion met
 ---------------------------------------
 SCF time:   CPU 464.58s  wall 167.00s 
 SCF   energy in the final basis set =    -2285.5879158496
 Total energy in the final basis set =    -2285.5879158496

 --------------------------------------------------------------
             Orbital Energies (a.u.) and Symmetries
 --------------------------------------------------------------

 Alpha MOs, Restricted
 -- Occupied --                  
-10.237 -10.237 -10.237 -10.237 -10.237 -10.237 -10.237 -10.237
  1 Ag    1 Au    2 Au    3 Au    2 Ag    3 Ag    4 Ag    5 Ag                 
-10.237 -10.237 -10.237 -10.237 -10.237 -10.237 -10.237 -10.237
  6 Ag    4 Au    5 Au    6 Au    7 Au    8 Au    9 Au   10 Au                 
-10.237 -10.237 -10.237 -10.237 -10.237 -10.237 -10.237 -10.237
  7 Ag    8 Ag    9 Ag   10 Ag   11 Ag   11 Au   12 Ag   13 Ag                 
-10.237 -10.237 -10.237 -10.237 -10.237 -10.236 -10.236 -10.236
 12 Au   13 Au   14 Ag   14 Au   15 Ag   15 Au   16 Ag   17 Ag                 
-10.236 -10.236 -10.236 -10.236 -10.236 -10.236 -10.236 -10.236
 16 Au   18 Ag   17 Au   18 Au   19 Ag   20 Ag   19 Au   21 Ag                 
-10.236 -10.236 -10.236 -10.236 -10.236 -10.236 -10.236 -10.236
 20 Au   21 Au   22 Au   22 Ag   23 Ag   23 Au   24 Au   25 Au                 
-10.236 -10.236 -10.236 -10.236 -10.236 -10.236 -10.236 -10.236
 26 Au   24 Ag   25 Ag   26 Ag   27 Ag   28 Ag   27 Au   28 Au                 
-10.236 -10.236 -10.236 -10.236  -0.984  -0.964  -0.964  -0.964
 29 Ag   30 Ag   29 Au   30 Au   31 Ag   31 Au   32 Au   33 Au                 
 -0.926  -0.926  -0.926  -0.926  -0.926  -0.886  -0.886  -0.886
 32 Ag   33 Ag   34 Ag   35 Ag   36 Ag   34 Au   35 Au   36 Au                 
 -0.853  -0.853  -0.853  -0.853  -0.803  -0.803  -0.803  -0.803
 37 Au   38 Au   39 Au   40 Au   37 Ag   38 Ag   39 Ag   40 Ag                 
 -0.803  -0.786  -0.786  -0.786  -0.786  -0.729  -0.729  -0.729
 41 Ag   42 Ag   43 Ag   44 Ag   45 Ag   41 Au   42 Au   43 Au                 
 -0.729  -0.729  -0.715  -0.715  -0.715  -0.673  -0.673  -0.673
 44 Au   45 Au   46 Au   47 Au   48 Au   49 Au   50 Au   51 Au                 
 -0.636  -0.636  -0.636  -0.636  -0.636  -0.632  -0.632  -0.632
 46 Ag   47 Ag   48 Ag   49 Ag   50 Ag   51 Ag   52 Ag   53 Ag                 
 -0.607  -0.565  -0.565  -0.565  -0.565  -0.541  -0.541  -0.541
 54 Ag   55 Ag   56 Ag   57 Ag   58 Ag   52 Au   53 Au   54 Au                 
 -0.541  -0.541  -0.526  -0.526  -0.526  -0.500  -0.500  -0.500
 55 Au   56 Au   57 Au   58 Au   59 Au   60 Au   61 Au   62 Au                 
 -0.488  -0.475  -0.475  -0.475  -0.475  -0.465  -0.465  -0.465
 59 Ag   63 Au   64 Au   65 Au   66 Au   67 Au   68 Au   69 Au                 
 -0.457  -0.457  -0.457  -0.457  -0.457  -0.442  -0.442  -0.442
 60 Ag   61 Ag   62 Ag   63 Ag   64 Ag   65 Ag   66 Ag   67 Ag                 
 -0.442  -0.431  -0.431  -0.431  -0.420  -0.420  -0.420  -0.420
 68 Ag   69 Ag   70 Ag   71 Ag   72 Ag   73 Ag   74 Ag   75 Ag                 
 -0.420  -0.413  -0.413  -0.413  -0.413  -0.369  -0.369  -0.369
 76 Ag   70 Au   71 Au   72 Au   73 Au   77 Ag   78 Ag   79 Ag                 
 -0.369  -0.369  -0.365  -0.365  -0.365  -0.358  -0.358  -0.358
 80 Ag   81 Ag   74 Au   75 Au   76 Au   77 Au   78 Au   79 Au                 
 -0.358  -0.358  -0.346  -0.346  -0.346  -0.346  -0.278  -0.278
 80 Au   81 Au   82 Au   83 Au   84 Au   85 Au   82 Ag   83 Ag                 
 -0.278  -0.278  -0.278  -0.278  -0.277  -0.277  -0.277  -0.229
 84 Ag   85 Ag   86 Ag   87 Ag   88 Ag   89 Ag   90 Ag   86 Au                 
 -0.229  -0.229  -0.229  -0.229
 87 Au   88 Au   89 Au   90 Au                                                 
 -- Virtual --                   
 -0.124  -0.124  -0.124  -0.083  -0.083  -0.083  -0.036  -0.036
 91 Au   92 Au   93 Au   91 Ag   92 Ag   93 Ag   94 Au   95 Au                 
 -0.036  -0.034  -0.034  -0.034  -0.034  -0.034   0.024   0.024
 96 Au   94 Ag   95 Ag   96 Ag   97 Ag   98 Ag   97 Au   98 Au                 
  0.024   0.024   0.024   0.045   0.045   0.045   0.045   0.071
 99 Au  100 Au  101 Au   99 Ag  100 Ag  101 Ag  102 Ag  102 Au                 
  0.071   0.071   0.071   0.089   0.089   0.089   0.130   0.130
103 Au  104 Au  105 Au  103 Ag  104 Ag  105 Ag  106 Au  107 Au                 
  0.130   0.159   0.159   0.160   0.160   0.160   0.185   0.185
108 Au  106 Ag  107 Ag  108 Ag  109 Ag  110 Ag  111 Ag  112 Ag                 
  0.185   0.194   0.194   0.194   0.200   0.200   0.201   0.201
113 Ag  109 Au  110 Au  111 Au  112 Au  113 Au  114 Au  115 Au                 
  0.238   0.238   0.238   0.238   0.238   0.258   0.258   0.258
114 Ag  115 Ag  116 Ag  117 Ag  118 Ag  119 Ag  120 Ag  121 Ag                 
  0.258   0.289   0.289   0.289   0.289   0.289   0.318   0.318
122 Ag  116 Au  117 Au  118 Au  119 Au  120 Au  121 Au  122 Au                 
  0.318   0.338   0.338   0.338   0.360   0.360   0.360   0.380
123 Au  124 Au  125 Au  126 Au  123 Ag  124 Ag  125 Ag  127 Au                 
  0.380   0.380   0.380   0.380   0.436   0.437   0.437   0.437
128 Au  129 Au  130 Au  131 Au  126 Ag  127 Ag  128 Ag  129 Ag                 
  0.464   0.464   0.464   0.464   0.465   0.465   0.466   0.466
132 Au  133 Au  134 Au  135 Au  130 Ag  131 Ag  132 Ag  133 Ag                 
  0.468   0.468   0.468   0.468   0.468   0.471   0.471   0.471
134 Ag  135 Ag  136 Ag  137 Ag  138 Ag  136 Au  137 Au  138 Au                 
  0.482   0.496   0.496   0.496   0.511   0.511   0.511   0.511
139 Ag  140 Ag  141 Ag  142 Ag  143 Ag  144 Ag  145 Ag  146 Ag                 
  0.511   0.528   0.528   0.528   0.528   0.529   0.529   0.530
147 Ag  148 Ag  149 Ag  150 Ag  151 Ag  139 Au  140 Au  141 Au                 
  0.536   0.536   0.536   0.536   0.541   0.541   0.541   0.541
142 Au  143 Au  144 Au  145 Au  146 Au  147 Au  148 Au  149 Au                 
  0.541   0.557   0.557   0.557   0.561   0.561   0.561   0.561
150 Au  151 Au  152 Au  153 Au  154 Au  155 Au  156 Au  157 Au                 
  0.561   0.567   0.567   0.567   0.568   0.568   0.570   0.570
158 Au  152 Ag  153 Ag  154 Ag  155 Ag  156 Ag  157 Ag  158 Ag                 
  0.570   0.570   0.577   0.577   0.577   0.587   0.587   0.587
159 Ag  160 Ag  159 Au  160 Au  161 Au  162 Au  163 Au  164 Au                 
  0.601   0.603   0.604   0.604   0.604   0.605   0.627   0.627
161 Ag  162 Ag  163 Ag  164 Ag  165 Ag  166 Ag  165 Au  166 Au                 
  0.627   0.627   0.627   0.633   0.633   0.633   0.633   0.633
167 Au  168 Au  169 Au  167 Ag  168 Ag  169 Ag  170 Ag  171 Ag                 
  0.637   0.637   0.637   0.649   0.649   0.649   0.656   0.657
172 Ag  173 Ag  174 Ag  175 Ag  176 Ag  177 Ag  170 Au  171 Au                 
  0.657   0.657   0.661   0.661   0.661   0.661   0.665   0.665
172 Au  173 Au  178 Ag  179 Ag  180 Ag  181 Ag  174 Au  175 Au                 
  0.665   0.665   0.665   0.670   0.670   0.670   0.670   0.679
176 Au  177 Au  178 Au  179 Au  180 Au  181 Au  182 Au  182 Ag                 
  0.679   0.679   0.683   0.691   0.691   0.691   0.691   0.693
183 Ag  184 Ag  183 Au  184 Au  185 Au  186 Au  187 Au  188 Au                 
  0.694   0.694   0.708   0.708   0.708   0.713   0.714   0.714
189 Au  190 Au  185 Ag  186 Ag  187 Ag  188 Ag  189 Ag  190 Ag                 
  0.714   0.719   0.719   0.719   0.784   0.784   0.784   0.784
191 Ag  191 Au  192 Au  193 Au  192 Ag  193 Ag  194 Ag  195 Ag                 
  0.784   0.811   0.811   0.812   0.850   0.850   0.850   0.850
196 Ag  194 Au  195 Au  196 Au  197 Au  198 Au  199 Au  200 Au                 
  0.869   0.869   0.869   0.869   0.869   0.885   0.885   0.885
197 Ag  198 Ag  199 Ag  200 Ag  201 Ag  201 Au  202 Au  203 Au                 
  0.885   0.885   0.907   0.907   0.907   0.907   0.907   0.916
204 Au  205 Au  202 Ag  203 Ag  204 Ag  205 Ag  206 Ag  207 Ag                 
  0.916   0.916   0.916   0.944   0.944   0.944   0.949   0.949
208 Ag  209 Ag  210 Ag  206 Au  207 Au  208 Au  209 Au  210 Au                 
  0.949   0.949   0.966   0.966   0.966   0.970   0.970   0.970
211 Au  212 Au  213 Au  214 Au  215 Au  211 Ag  212 Ag  213 Ag                 
  0.970   0.970   1.034   1.034   1.034   1.043   1.043   1.043
214 Ag  215 Ag  216 Ag  217 Ag  218 Ag  219 Ag  220 Ag  221 Ag                 
  1.043   1.043   1.043   1.050   1.050   1.050   1.071   1.072
216 Au  217 Au  218 Au  219 Au  220 Au  221 Au  222 Au  223 Au                 
  1.072   1.072   1.072   1.092   1.092   1.092   1.092   1.092
224 Au  225 Au  226 Au  227 Au  228 Au  229 Au  230 Au  231 Au                 
  1.095   1.095   1.095   1.095   1.099   1.100   1.100   1.100
232 Au  233 Au  234 Au  235 Au  222 Ag  223 Ag  224 Ag  225 Ag                 
  1.105   1.105   1.105   1.105   1.106   1.152   1.152   1.152
226 Ag  227 Ag  228 Ag  229 Ag  230 Ag  231 Ag  232 Ag  233 Ag                 
  1.152   1.152   1.153   1.153   1.153   1.153   1.153   1.153
234 Ag  235 Ag  236 Ag  237 Ag  238 Ag  239 Ag  240 Ag  241 Ag                 
  1.153   1.193   1.193   1.193   1.215   1.216   1.216   1.216
242 Ag  243 Ag  244 Ag  245 Ag  246 Ag  247 Ag  248 Ag  249 Ag                 
  1.258   1.258   1.258   1.258   1.258   1.269   1.269   1.269
236 Au  237 Au  238 Au  239 Au  240 Au  241 Au  242 Au  243 Au                 
  1.269   1.269   1.285   1.285   1.286   1.286   1.289   1.289
244 Au  245 Au  246 Au  247 Au  248 Au  249 Au  250 Au  251 Au                 
  1.289   1.364   1.364   1.364   1.383   1.383   1.383   1.401
252 Au  253 Au  254 Au  255 Au  250 Ag  251 Ag  252 Ag  253 Ag                 
  1.401   1.401   1.427   1.427   1.427   1.427   1.427   1.528
254 Ag  255 Ag  256 Au  257 Au  258 Au  259 Au  260 Au  261 Au                 
  1.655   1.655   1.655   1.655   1.655   1.783   1.783   1.783
256 Ag  257 Ag  258 Ag  259 Ag  260 Ag  261 Ag  262 Ag  263 Ag                 
  1.905   1.905   1.906   1.906   2.119   2.119   2.119   2.119
264 Ag  265 Ag  266 Ag  267 Ag  262 Au  263 Au  264 Au  265 Au                 
  2.119   2.319   2.320   2.320   2.320   2.601   2.601   2.601
266 Au  267 Au  268 Au  269 Au  270 Au  268 Ag  269 Ag  270 Ag                 

 Beta MOs, Restricted
 -- Occupied --                  
-10.237 -10.237 -10.237 -10.237 -10.237 -10.237 -10.237 -10.237
  1 Ag    1 Au    2 Au    3 Au    2 Ag    3 Ag    4 Ag    5 Ag                 
-10.237 -10.237 -10.237 -10.237 -10.237 -10.237 -10.237 -10.237
  6 Ag    4 Au    5 Au    6 Au    7 Au    8 Au    9 Au   10 Au                 
-10.237 -10.237 -10.237 -10.237 -10.237 -10.237 -10.237 -10.237
  7 Ag    8 Ag    9 Ag   10 Ag   11 Ag   11 Au   12 Ag   13 Ag                 
-10.237 -10.237 -10.237 -10.237 -10.237 -10.236 -10.236 -10.236
 12 Au   13 Au   14 Ag   14 Au   15 Ag   15 Au   16 Ag   17 Ag                 
-10.236 -10.236 -10.236 -10.236 -10.236 -10.236 -10.236 -10.236
 16 Au   18 Ag   17 Au   18 Au   19 Ag   20 Ag   19 Au   21 Ag                 
-10.236 -10.236 -10.236 -10.236 -10.236 -10.236 -10.236 -10.236
 20 Au   21 Au   22 Au   22 Ag   23 Ag   23 Au   24 Au   25 Au                 
-10.236 -10.236 -10.236 -10.236 -10.236 -10.236 -10.236 -10.236
 26 Au   24 Ag   25 Ag   26 Ag   27 Ag   28 Ag   27 Au   28 Au                 
-10.236 -10.236 -10.236 -10.236  -0.984  -0.964  -0.964  -0.964
 29 Ag   30 Ag   29 Au   30 Au   31 Ag   31 Au   32 Au   33 Au                 
 -0.926  -0.926  -0.926  -0.926  -0.926  -0.886  -0.886  -0.886
 32 Ag   33 Ag   34 Ag   35 Ag   36 Ag   34 Au   35 Au   36 Au                 
 -0.853  -0.853  -0.853  -0.853  -0.803  -0.803  -0.803  -0.803
 37 Au   38 Au   39 Au   40 Au   37 Ag   38 Ag   39 Ag   40 Ag                 
 -0.803  -0.786  -0.786  -0.786  -0.786  -0.729  -0.729  -0.729
 41 Ag   42 Ag   43 Ag   44 Ag   45 Ag   41 Au   42 Au   43 Au                 
 -0.729  -0.729  -0.715  -0.715  -0.715  -0.673  -0.673  -0.673
 44 Au   45 Au   46 Au   47 Au   48 Au   49 Au   50 Au   51 Au                 
 -0.636  -0.636  -0.636  -0.636  -0.636  -0.632  -0.632  -0.632
 46 Ag   47 Ag   48 Ag   49 Ag   50 Ag   51 Ag   52 Ag   53 Ag                 
 -0.607  -0.565  -0.565  -0.565  -0.565  -0.541  -0.541  -0.541
 54 Ag   55 Ag   56 Ag   57 Ag   58 Ag   52 Au   53 Au   54 Au                 
 -0.541  -0.541  -0.526  -0.526  -0.526  -0.500  -0.500  -0.500
 55 Au   56 Au   57 Au   58 Au   59 Au   60 Au   61 Au   62 Au                 
 -0.488  -0.475  -0.475  -0.475  -0.475  -0.465  -0.465  -0.465
 59 Ag   63 Au   64 Au   65 Au   66 Au   67 Au   68 Au   69 Au                 
 -0.457  -0.457  -0.457  -0.457  -0.457  -0.442  -0.442  -0.442
 60 Ag   61 Ag   62 Ag   63 Ag   64 Ag   65 Ag   66 Ag   67 Ag                 
 -0.442  -0.431  -0.431  -0.431  -0.420  -0.420  -0.420  -0.420
 68 Ag   69 Ag   70 Ag   71 Ag   72 Ag   73 Ag   74 Ag   75 Ag                 
 -0.420  -0.413  -0.413  -0.413  -0.413  -0.369  -0.369  -0.369
 76 Ag   70 Au   71 Au   72 Au   73 Au   77 Ag   78 Ag   79 Ag                 
 -0.369  -0.369  -0.365  -0.365  -0.365  -0.358  -0.358  -0.358
 80 Ag   81 Ag   74 Au   75 Au   76 Au   77 Au   78 Au   79 Au                 
 -0.358  -0.358  -0.346  -0.346  -0.346  -0.346  -0.278  -0.278
 80 Au   81 Au   82 Au   83 Au   84 Au   85 Au   82 Ag   83 Ag                 
 -0.278  -0.278  -0.278  -0.278  -0.277  -0.277  -0.277  -0.229
 84 Ag   85 Ag   86 Ag   87 Ag   88 Ag   89 Ag   90 Ag   86 Au                 
 -0.229  -0.229  -0.229  -0.229
 87 Au   88 Au   89 Au   90 Au                                                 
 -- Virtual --                   
 -0.124  -0.124  -0.124  -0.083  -0.083  -0.083  -0.036  -0.036
 91 Au   92 Au   93 Au   91 Ag   92 Ag   93 Ag   94 Au   95 Au                 
 -0.036  -0.034  -0.034  -0.034  -0.034  -0.034   0.024   0.024
 96 Au   94 Ag   95 Ag   96 Ag   97 Ag   98 Ag   97 Au   98 Au                 
  0.024   0.024   0.024   0.045   0.045   0.045   0.045   0.071
 99 Au  100 Au  101 Au   99 Ag  100 Ag  101 Ag  102 Ag  102 Au                 
  0.071   0.071   0.071   0.089   0.089   0.089   0.130   0.130
103 Au  104 Au  105 Au  103 Ag  104 Ag  105 Ag  106 Au  107 Au                 
  0.130   0.159   0.159   0.160   0.160   0.160   0.185   0.185
108 Au  106 Ag  107 Ag  108 Ag  109 Ag  110 Ag  111 Ag  112 Ag                 
  0.185   0.194   0.194   0.194   0.200   0.200   0.201   0.201
113 Ag  109 Au  110 Au  111 Au  112 Au  113 Au  114 Au  115 Au                 
  0.238   0.238   0.238   0.238   0.238   0.258   0.258   0.258
114 Ag  115 Ag  116 Ag  117 Ag  118 Ag  119 Ag  120 Ag  121 Ag                 
  0.258   0.289   0.289   0.289   0.289   0.289   0.318   0.318
122 Ag  116 Au  117 Au  118 Au  119 Au  120 Au  121 Au  122 Au                 
  0.318   0.338   0.338   0.338   0.360   0.360   0.360   0.380
123 Au  124 Au  125 Au  126 Au  123 Ag  124 Ag  125 Ag  127 Au                 
  0.380   0.380   0.380   0.380   0.436   0.437   0.437   0.437
128 Au  129 Au  130 Au  131 Au  126 Ag  127 Ag  128 Ag  129 Ag                 
  0.464   0.464   0.464   0.464   0.465   0.465   0.466   0.466
132 Au  133 Au  134 Au  135 Au  130 Ag  131 Ag  132 Ag  133 Ag                 
  0.468   0.468   0.468   0.468   0.468   0.471   0.471   0.471
134 Ag  135 Ag  136 Ag  137 Ag  138 Ag  136 Au  137 Au  138 Au                 
  0.482   0.496   0.496   0.496   0.511   0.511   0.511   0.511
139 Ag  140 Ag  141 Ag  142 Ag  143 Ag  144 Ag  145 Ag  146 Ag                 
  0.511   0.528   0.528   0.528   0.528   0.529   0.529   0.530
147 Ag  148 Ag  149 Ag  150 Ag  151 Ag  139 Au  140 Au  141 Au                 
  0.536   0.536   0.536   0.536   0.541   0.541   0.541   0.541
142 Au  143 Au  144 Au  145 Au  146 Au  147 Au  148 Au  149 Au                 
  0.541   0.557   0.557   0.557   0.561   0.561   0.561   0.561
150 Au  151 Au  152 Au  153 Au  154 Au  155 Au  156 Au  157 Au                 
  0.561   0.567   0.567   0.567   0.568   0.568   0.570   0.570
158 Au  152 Ag  153 Ag  154 Ag  155 Ag  156 Ag  157 Ag  158 Ag                 
  0.570   0.570   0.577   0.577   0.577   0.587   0.587   0.587
159 Ag  160 Ag  159 Au  160 Au  161 Au  162 Au  163 Au  164 Au                 
  0.601   0.603   0.604   0.604   0.604   0.605   0.627   0.627
161 Ag  162 Ag  163 Ag  164 Ag  165 Ag  166 Ag  165 Au  166 Au                 
  0.627   0.627   0.627   0.633   0.633   0.633   0.633   0.633
167 Au  168 Au  169 Au  167 Ag  168 Ag  169 Ag  170 Ag  171 Ag                 
  0.637   0.637   0.637   0.649   0.649   0.649   0.656   0.657
172 Ag  173 Ag  174 Ag  175 Ag  176 Ag  177 Ag  170 Au  171 Au                 
  0.657   0.657   0.661   0.661   0.661   0.661   0.665   0.665
172 Au  173 Au  178 Ag  179 Ag  180 Ag  181 Ag  174 Au  175 Au                 
  0.665   0.665   0.665   0.670   0.670   0.670   0.670   0.679
176 Au  177 Au  178 Au  179 Au  180 Au  181 Au  182 Au  182 Ag                 
  0.679   0.679   0.683   0.691   0.691   0.691   0.691   0.693
183 Ag  184 Ag  183 Au  184 Au  185 Au  186 Au  187 Au  188 Au                 
  0.694   0.694   0.708   0.708   0.708   0.713   0.714   0.714
189 Au  190 Au  185 Ag  186 Ag  187 Ag  188 Ag  189 Ag  190 Ag                 
  0.714   0.719   0.719   0.719   0.784   0.784   0.784   0.784
191 Ag  191 Au  192 Au  193 Au  192 Ag  193 Ag  194 Ag  195 Ag                 
  0.784   0.811   0.811   0.812   0.850   0.850   0.850   0.850
196 Ag  194 Au  195 Au  196 Au  197 Au  198 Au  199 Au  200 Au                 
  0.869   0.869   0.869   0.869   0.869   0.885   0.885   0.885
197 Ag  198 Ag  199 Ag  200 Ag  201 Ag  201 Au  202 Au  203 Au                 
  0.885   0.885   0.907   0.907   0.907   0.907   0.907   0.916
204 Au  205 Au  202 Ag  203 Ag  204 Ag  205 Ag  206 Ag  207 Ag                 
  0.916   0.916   0.916   0.944   0.944   0.944   0.949   0.949
208 Ag  209 Ag  210 Ag  206 Au  207 Au  208 Au  209 Au  210 Au                 
  0.949   0.949   0.966   0.966   0.966   0.970   0.970   0.970
211 Au  212 Au  213 Au  214 Au  215 Au  211 Ag  212 Ag  213 Ag                 
  0.970   0.970   1.034   1.034   1.034   1.043   1.043   1.043
214 Ag  215 Ag  216 Ag  217 Ag  218 Ag  219 Ag  220 Ag  221 Ag                 
  1.043   1.043   1.043   1.050   1.050   1.050   1.071   1.072
216 Au  217 Au  218 Au  219 Au  220 Au  221 Au  222 Au  223 Au                 
  1.072   1.072   1.072   1.092   1.092   1.092   1.092   1.092
224 Au  225 Au  226 Au  227 Au  228 Au  229 Au  230 Au  231 Au                 
  1.095   1.095   1.095   1.095   1.099   1.100   1.100   1.100
232 Au  233 Au  234 Au  235 Au  222 Ag  223 Ag  224 Ag  225 Ag                 
  1.105   1.105   1.105   1.105   1.106   1.152   1.152   1.152
226 Ag  227 Ag  228 Ag  229 Ag  230 Ag  231 Ag  232 Ag  233 Ag                 
  1.152   1.152   1.153   1.153   1.153   1.153   1.153   1.153
234 Ag  235 Ag  236 Ag  237 Ag  238 Ag  239 Ag  240 Ag  241 Ag                 
  1.153   1.193   1.193   1.193   1.215   1.216   1.216   1.216
242 Ag  243 Ag  244 Ag  245 Ag  246 Ag  247 Ag  248 Ag  249 Ag                 
  1.258   1.258   1.258   1.258   1.258   1.269   1.269   1.269
236 Au  237 Au  238 Au  239 Au  240 Au  241 Au  242 Au  243 Au                 
  1.269   1.269   1.285   1.285   1.286   1.286   1.289   1.289
244 Au  245 Au  246 Au  247 Au  248 Au  249 Au  250 Au  251 Au                 
  1.289   1.364   1.364   1.364   1.383   1.383   1.383   1.401
252 Au  253 Au  254 Au  255 Au  250 Ag  251 Ag  252 Ag  253 Ag                 
  1.401   1.401   1.427   1.427   1.427   1.427   1.427   1.528
254 Ag  255 Ag  256 Au  257 Au  258 Au  259 Au  260 Au  261 Au                 
  1.655   1.655   1.655   1.655   1.655   1.783   1.783   1.783
256 Ag  257 Ag  258 Ag  259 Ag  260 Ag  261 Ag  262 Ag  263 Ag                 
  1.905   1.905   1.906   1.906   2.119   2.119   2.119   2.119
264 Ag  265 Ag  266 Ag  267 Ag  262 Au  263 Au  264 Au  265 Au                 
  2.119   2.319   2.320   2.320   2.320   2.601   2.601   2.601
266 Au  267 Au  268 Au  269 Au  270 Au  268 Ag  269 Ag  270 Ag                 
 --------------------------------------------------------------

          Ground-State Mulliken Net Atomic Charges

     Atom                 Charge (a.u.)
  ----------------------------------------
      1 C                     0.000263
      2 C                     0.000197
      3 C                     0.000197
      4 C                     0.000263
      5 C                     0.000324
      6 C                     0.000161
      7 C                     0.000161
      8 C                     0.000324
      9 C                     0.000184
     10 C                     0.000516
     11 C                     0.000516
     12 C                     0.000184
     13 C                     0.000161
     14 C                    -0.000563
     15 C                    -0.000160
     16 C                    -0.000355
     17 C                    -0.000355
     18 C                    -0.000160
     19 C                    -0.000563
     20 C                     0.000161
     21 C                    -0.000385
     22 C                    -0.000253
     23 C                     0.000123
     24 C                     0.000108
     25 C                     0.000108
     26 C                     0.000123
     27 C                    -0.000254
     28 C                    -0.000384
     29 C                    -0.000029
     30 C                    -0.000065
     31 C                     0.000074
     32 C                    -0.000124
     33 C                    -0.000124
     34 C                     0.000074
     35 C                    -0.000065
     36 C                    -0.000029
     37 C                    -0.000128
     38 C                     0.000100
     39 C                     0.000338
     40 C                     0.000156
     41 C                     0.000156
     42 C                     0.000338
     43 C                     0.000100
     44 C                    -0.000128
     45 C                     0.000232
     46 C                    -0.000330
     47 C                    -0.000279
     48 C                    -0.000163
     49 C                    -0.000163
     50 C                    -0.000279
     51 C                    -0.000330
     52 C                     0.000232
     53 C                    -0.000467
     54 C                     0.000198
     55 C                     0.000405
     56 C                    -0.000239
     57 C                    -0.000239
     58 C                     0.000405
     59 C                     0.000198
     60 C                    -0.000467
  ----------------------------------------
  Sum of atomic charges =     0.000000

 -----------------------------------------------------------------
                    Cartesian Multipole Moments
 -----------------------------------------------------------------
    Charge (ESU x 10^10)
                 0.0000
    Dipole Moment (Debye)
         X      -0.0000      Y      -0.0000      Z      -0.0000
       Tot       0.0000
    Quadrupole Moments (Debye-Ang)
        XX    -331.3495     XY      -0.0015     YY    -331.3435
        XZ       0.0050     YZ       0.0001     ZZ    -331.3416
    Octopole Moments (Debye-Ang^2)
       XXX      -0.0000    XXY      -0.0000    XYY      -0.0000
       YYY       0.0000    XXZ      -0.0000    XYZ       0.0000
       YYZ       0.0000    XZZ      -0.0000    YZZ      -0.0000
       ZZZ      -0.0000
    Hexadecapole Moments (Debye-Ang^3)
      XXXX   -8669.2196   XXXY      -0.0116   XXYY   -2889.7549
      XYYY      -0.0109   YYYY   -8669.0656   XXXZ      -0.0406
      XXYZ      -0.0002   XYYZ       0.0653   YYYZ       0.0205
      XXZZ   -2889.7421   XYZZ      -0.0165   YYZZ   -2889.7700
      XZZZ       0.0180   YZZZ       0.0041   ZZZZ   -8669.0443
 -----------------------------------------------------------------
 Calculating MO derivatives via CPSCF
    1     0   183    0.0181737  
    2     0   183    0.0025068  
    3     0   183    0.0001705  
    4     0   183    0.0000110  
    5   183     0    0.0000005  Converged
 ------------------------------------------------------------------------------
                     AOints        : Timing summary (seconds)
 ------------------------------------------------------------------------------
     job step          cpu (% of tot)      sys (% of tot)     wall (% of tot)
 ------------------------------------------------------------------------------
  AOints            0.4206E+04 ( 9.7)   0.4270E-03 ( 8.4)   0.1051E+04 (14.6)
 ------------------------------------------------------------------------------
   Grand Totals     0.4342E+05          0.5095E-02          0.7179E+04
 ------------------------------------------------------------------------------
 Polarizability Matrix (a.u.)
            1           2           3
    1-458.2722014   0.0010984  -0.0083854
    2   0.0010984-458.2766370   0.0012709
    3  -0.0083854   0.0012709-458.2763627
 Calculating analytic Hessian of the SCF energy

 Direct stationary perturbation theory relativistic correction:

 rels  =       0.527383519675
 relv  =      -4.733847772843
 rel2e =       3.352815596411
 E_rel =      -0.853648656758

 **********************************************************************
 **                                                                  **
 **                       VIBRATIONAL ANALYSIS                       **
 **                       --------------------                       **
 **                                                                  **
 **        VIBRATIONAL FREQUENCIES (CM**-1) AND NORMAL MODES         **
 **     FORCE CONSTANTS (mDYN/ANGSTROM) AND REDUCED MASSES (AMU)     **
 **                  INFRARED INTENSITIES (KM/MOL)                   **
 **                                                                  **
 **********************************************************************


 Mode:                 1                      2                      3
 Frequency:       271.25                 271.72                 272.15
 Force Cnst:      0.5202                 0.5220                 0.5237
 Red. Mass:      12.0000                12.0000                12.0000
 IR Active:          NO                     NO                     NO 
 IR Intens:        0.000                  0.000                  0.000
 Raman Active:       YES                    YES                    YES
               X      Y      Z        X      Y      Z        X      Y      Z
 C          0.129 -0.040  0.030   -0.054 -0.028 -0.054   -0.079  0.105  0.014
 C          0.116 -0.016  0.062   -0.104 -0.044 -0.005    0.029  0.087  0.039
 C         -0.116  0.016 -0.062    0.104  0.044  0.005   -0.029 -0.087 -0.039
 C         -0.129  0.040 -0.030    0.054  0.028  0.054    0.079 -0.105 -0.014
 C         -0.062 -0.068  0.191    0.022 -0.082 -0.109   -0.015 -0.006 -0.036
 C         -0.051 -0.054  0.134    0.021 -0.059 -0.077   -0.022 -0.060 -0.062
 C          0.051  0.054 -0.134   -0.021  0.059  0.077    0.022  0.060  0.062
 C          0.062  0.068 -0.191   -0.022  0.082  0.109    0.015  0.006  0.036
 C         -0.008 -0.066 -0.050    0.045 -0.034 -0.097   -0.094 -0.001 -0.047
 C          0.027 -0.011 -0.059    0.036  0.063 -0.075   -0.081  0.046 -0.037
 C         -0.027  0.011  0.059   -0.036 -0.063  0.075    0.081 -0.046  0.037
 C          0.008  0.066  0.050   -0.045  0.034  0.097    0.094  0.001  0.047
 C          0.074 -0.059  0.036    0.029 -0.068 -0.091   -0.106  0.100  0.028
 C          0.130 -0.050  0.017   -0.064  0.020 -0.048   -0.107  0.132 -0.007
 C          0.021 -0.032  0.089   -0.109 -0.081  0.006    0.043  0.066  0.017
 C          0.141  0.033  0.065   -0.094 -0.026  0.001    0.098  0.101  0.075
 C         -0.141 -0.033 -0.065    0.094  0.026 -0.001   -0.098 -0.101 -0.075
 C         -0.021  0.032 -0.089    0.109  0.081 -0.006   -0.043 -0.066 -0.017
 C         -0.130  0.050 -0.017    0.064 -0.020  0.048    0.107 -0.132  0.007
 C         -0.074  0.059 -0.036   -0.029  0.068  0.091    0.106 -0.100 -0.028
 C         -0.032 -0.046  0.119    0.055 -0.104 -0.179   -0.046  0.005 -0.020
 C         -0.074 -0.099  0.201   -0.028 -0.091 -0.012    0.008 -0.002 -0.012
 C         -0.074 -0.046  0.028    0.025 -0.060 -0.096   -0.074 -0.076 -0.124
 C         -0.057 -0.050  0.099    0.037 -0.073  0.013    0.032 -0.086  0.011
 C          0.057  0.050 -0.099   -0.037  0.073 -0.013   -0.032  0.086 -0.011
 C          0.074  0.046 -0.028   -0.025  0.060  0.096    0.074  0.076  0.124
 C          0.074  0.099 -0.201    0.028  0.091  0.012   -0.008  0.002  0.012
 C          0.032  0.046 -0.119   -0.055  0.104  0.179    0.046 -0.005  0.020
 C          0.021 -0.066 -0.004    0.057 -0.109 -0.148   -0.098  0.057 -0.015
 C         -0.050 -0.070 -0.042    0.046 -0.027 -0.091   -0.118 -0.097 -0.103
 C          0.048 -0.003 -0.064    0.004  0.065 -0.062   -0.100  0.132 -0.041
 C          0.030  0.060 -0.108    0.073  0.111 -0.057   -0.076 -0.018 -0.018
 C         -0.030 -0.060  0.108   -0.073 -0.111  0.057    0.076  0.018  0.018
 C         -0.048  0.003  0.064   -0.004 -0.065  0.062    0.100 -0.132  0.041
 C          0.050  0.070  0.042   -0.046  0.027  0.091    0.118  0.097  0.103
 C         -0.021  0.066  0.004   -0.057  0.109  0.148    0.098 -0.057  0.015
 C         -0.012 -0.050  0.093    0.034 -0.086 -0.115   -0.061  0.049  0.007
 C          0.119  0.005 -0.000   -0.068  0.043 -0.041   -0.033  0.106  0.012
 C         -0.044 -0.065  0.140   -0.037 -0.086 -0.025   -0.002  0.037  0.018
 C          0.129  0.021  0.042   -0.069  0.024  0.022    0.063  0.094  0.081
 C         -0.129 -0.021 -0.042    0.069 -0.024 -0.022   -0.063 -0.094 -0.081
 C          0.044  0.065 -0.140    0.037  0.086  0.025    0.002 -0.037 -0.018
 C         -0.119 -0.005  0.000    0.068 -0.043  0.041    0.033 -0.106 -0.012
 C          0.012  0.050 -0.093   -0.034  0.086  0.115    0.061 -0.049 -0.007
 C         -0.025 -0.054  0.032    0.054 -0.130 -0.199   -0.074 -0.002 -0.057
 C         -0.062 -0.106  0.165   -0.033 -0.122  0.055    0.047 -0.019  0.021
 C         -0.044 -0.052 -0.006    0.033 -0.086 -0.153   -0.094 -0.087 -0.122
 C         -0.049 -0.074  0.121   -0.002 -0.094  0.064    0.056 -0.104  0.037
 C          0.049  0.074 -0.121    0.002  0.094 -0.064   -0.056  0.104 -0.037
 C          0.044  0.052  0.006   -0.033  0.086  0.153    0.094  0.087  0.122
 C          0.062  0.106 -0.165    0.033  0.122 -0.055   -0.047  0.019 -0.021
 C          0.025  0.054 -0.032   -0.054  0.130  0.199    0.074  0.002  0.057
 C          0.060 -0.069 -0.005    0.041 -0.079 -0.104   -0.135  0.136  0.008
 C         -0.080 -0.035 -0.074    0.096  0.042 -0.036   -0.132 -0.124 -0.076
 C          0.095 -0.054 -0.008   -0.002  0.000 -0.076   -0.132  0.169 -0.016
 C         -0.013  0.024 -0.079    0.100  0.100 -0.038   -0.101 -0.087 -0.039
 C          0.013 -0.024  0.079   -0.100 -0.100  0.038    0.101  0.087  0.039
 C         -0.095  0.054  0.008    0.002 -0.000  0.076    0.132 -0.169  0.016
 C          0.080  0.035  0.074   -0.096 -0.042  0.036    0.132  0.124  0.076
 C         -0.060  0.069  0.005   -0.041  0.079  0.104    0.135 -0.136 -0.008
 TransDip   0.000  0.000 -0.000    0.000  0.000  0.000    0.000  0.000  0.000

 Mode:                 4                      5                      6
 Frequency:       273.02                 273.18                 352.99
 Force Cnst:      0.5270                 0.5276                 0.8810
 Red. Mass:      12.0000                12.0000                12.0000
 IR Active:          NO                     NO                     YES
 IR Intens:        0.000                  0.000                  0.000
 Raman Active:       YES                    YES                    NO 
               X      Y      Z        X      Y      Z        X      Y      Z
 C          0.111 -0.019  0.034    0.140  0.011 -0.077    0.084 -0.006  0.017
 C          0.095 -0.030  0.032    0.163  0.023 -0.068    0.130  0.019  0.019
 C         -0.095  0.030 -0.032   -0.163 -0.023  0.068    0.130  0.019  0.019
 C         -0.111  0.019 -0.034   -0.140 -0.011  0.077    0.084 -0.006  0.017
 C         -0.023  0.009 -0.094    0.085 -0.015  0.027   -0.082 -0.023  0.197
 C         -0.055  0.023 -0.135    0.076 -0.037  0.117   -0.049 -0.006  0.026
 C          0.055 -0.023  0.135   -0.076  0.037 -0.117   -0.049 -0.006  0.026
 C          0.023 -0.009  0.094   -0.085  0.015 -0.027   -0.082 -0.023  0.197
 C          0.015  0.216  0.036    0.012  0.068  0.007    0.007 -0.103 -0.089
 C          0.039  0.218  0.016   -0.035  0.089 -0.013    0.021  0.088 -0.058
 C         -0.039 -0.218 -0.016    0.035 -0.089  0.013    0.021  0.088 -0.058
 C         -0.015 -0.216 -0.036   -0.012 -0.068 -0.007    0.007 -0.103 -0.089
 C          0.050  0.034  0.013    0.157 -0.011 -0.089    0.002 -0.030  0.042
 C          0.113 -0.001  0.071    0.028  0.053 -0.083    0.050 -0.001 -0.010
 C          0.017 -0.069  0.008    0.187  0.037 -0.081    0.068  0.050  0.037
 C          0.084 -0.057  0.058    0.068  0.009 -0.068    0.105  0.020  0.003
 C         -0.084  0.057 -0.058   -0.068 -0.009  0.068    0.105  0.020  0.003
 C         -0.017  0.069 -0.008   -0.187 -0.037  0.081    0.068  0.050  0.037
 C         -0.113  0.001 -0.071   -0.028 -0.053  0.083    0.050 -0.001 -0.010
 C         -0.050 -0.034 -0.013   -0.157  0.011  0.089    0.002 -0.030  0.042
 C          0.011  0.031 -0.054    0.109 -0.009 -0.033   -0.099 -0.016  0.157
 C         -0.005 -0.031 -0.054    0.117 -0.009 -0.024   -0.097 -0.022  0.178
 C         -0.078  0.038 -0.117    0.046  0.001  0.109   -0.035 -0.051 -0.071
 C         -0.090  0.014 -0.127    0.064 -0.081  0.132   -0.029  0.050 -0.032
 C          0.090 -0.014  0.127   -0.064  0.081 -0.132   -0.029  0.050 -0.032
 C          0.078 -0.038  0.117   -0.046 -0.001 -0.109   -0.035 -0.051 -0.071
 C          0.005  0.031  0.054   -0.117  0.009  0.024   -0.097 -0.022  0.178
 C         -0.011 -0.031  0.054   -0.109  0.009  0.033   -0.099 -0.016  0.157
 C          0.001  0.157  0.034    0.038  0.036 -0.006    0.025 -0.138 -0.082
 C          0.012  0.153  0.007    0.003  0.054  0.053   -0.019 -0.107 -0.110
 C          0.034  0.130  0.033   -0.035  0.126 -0.069   -0.016  0.110 -0.062
 C          0.049  0.177 -0.001   -0.066  0.034 -0.001    0.059  0.128 -0.031
 C         -0.049 -0.177  0.001    0.066 -0.034  0.001    0.059  0.128 -0.031
 C         -0.034 -0.130 -0.033    0.035 -0.126  0.069   -0.016  0.110 -0.062
 C         -0.012 -0.153 -0.007   -0.003 -0.054 -0.053   -0.019 -0.107 -0.110
 C         -0.001 -0.157 -0.034   -0.038 -0.036  0.006    0.025 -0.138 -0.082
 C          0.021  0.002 -0.021    0.178 -0.006 -0.105   -0.126  0.002  0.156
 C          0.126 -0.035  0.120   -0.042  0.053 -0.114    0.004  0.018 -0.032
 C          0.009 -0.020 -0.020    0.188  0.016 -0.096   -0.112 -0.012  0.157
 C          0.116 -0.032  0.117   -0.023  0.024 -0.100    0.015 -0.006 -0.041
 C         -0.116  0.032 -0.117    0.023 -0.024  0.100    0.015 -0.006 -0.041
 C         -0.009  0.020  0.020   -0.188 -0.016  0.096   -0.112 -0.012  0.157
 C         -0.126  0.035 -0.120    0.042 -0.053  0.114    0.004  0.018 -0.032
 C         -0.021 -0.002  0.021   -0.178  0.006  0.105   -0.126  0.002  0.156
 C         -0.011  0.080 -0.017    0.056  0.025  0.008   -0.026 -0.114 -0.067
 C         -0.040 -0.082 -0.031    0.074 -0.053  0.024   -0.012  0.091  0.006
 C         -0.020  0.083 -0.044    0.046  0.026  0.066   -0.048 -0.116 -0.138
 C         -0.047 -0.056 -0.064    0.068 -0.102  0.091   -0.032  0.108 -0.060
 C          0.047  0.056  0.064   -0.068  0.102 -0.091   -0.032  0.108 -0.060
 C          0.020 -0.083  0.044   -0.046 -0.026 -0.066   -0.048 -0.116 -0.138
 C          0.040  0.082  0.031   -0.074  0.053 -0.024   -0.012  0.091  0.006
 C          0.011 -0.080  0.017   -0.056 -0.025 -0.008   -0.026 -0.114 -0.067
 C          0.011  0.094  0.036    0.070  0.030 -0.057    0.021 -0.069 -0.032
 C          0.001  0.119 -0.014   -0.044  0.008  0.048    0.078  0.028 -0.028
 C          0.046  0.075  0.040   -0.002  0.079 -0.063    0.022  0.003 -0.033
 C          0.039  0.134 -0.014   -0.114 -0.010  0.046    0.090  0.103 -0.017
 C         -0.039 -0.134  0.014    0.114  0.010 -0.046    0.090  0.103 -0.017
 C         -0.046 -0.075 -0.040    0.002 -0.079  0.063    0.022  0.003 -0.033
 C         -0.001 -0.119  0.014    0.044 -0.008 -0.048    0.078  0.028 -0.028
 C         -0.011 -0.094 -0.036   -0.070 -0.030  0.057    0.021 -0.069 -0.032
 TransDip   0.000 -0.000 -0.000   -0.000 -0.000 -0.000   -0.001 -0.000  0.000

 Mode:                 7                      8                      9
 Frequency:       353.91                 356.25                 362.40
 Force Cnst:      0.8856                 0.8973                 0.9285
 Red. Mass:      12.0000                12.0000                12.0000
 IR Active:          YES                    YES                    YES
 IR Intens:        0.002                  0.002                  0.000
 Raman Active:       NO                     NO                     NO 
               X      Y      Z        X      Y      Z        X      Y      Z
 C          0.142 -0.110 -0.010   -0.110  0.017  0.016    0.113 -0.018  0.059
 C         -0.112 -0.086 -0.008   -0.124 -0.013  0.011    0.080 -0.008  0.006
 C         -0.112 -0.086 -0.008   -0.124 -0.013  0.011    0.080 -0.008  0.006
 C          0.142 -0.110 -0.010   -0.110  0.017  0.016    0.113 -0.018  0.059
 C         -0.015  0.026  0.036    0.059 -0.004  0.021    0.013  0.014 -0.125
 C         -0.011  0.030 -0.002    0.089 -0.031  0.215    0.005 -0.037 -0.141
 C         -0.011  0.030 -0.002    0.089 -0.031  0.215    0.005 -0.037 -0.141
 C         -0.015  0.026  0.036    0.059 -0.004  0.021    0.013  0.014 -0.125
 C          0.013  0.117  0.025   -0.025 -0.080 -0.076   -0.051  0.127  0.015
 C          0.013  0.151 -0.013   -0.012  0.101 -0.056   -0.000  0.100  0.007
 C          0.013  0.151 -0.013   -0.012  0.101 -0.056   -0.000  0.100  0.007
 C          0.013  0.117  0.025   -0.025 -0.080 -0.076   -0.051  0.127  0.015
 C          0.162 -0.109 -0.044   -0.064  0.018 -0.013   -0.073  0.080  0.090
 C          0.170 -0.117  0.022   -0.040  0.039  0.042    0.190 -0.083  0.097
 C         -0.159 -0.080  0.037   -0.078 -0.010 -0.015   -0.004 -0.024 -0.002
 C         -0.151 -0.074 -0.050   -0.063 -0.053  0.026    0.028 -0.031 -0.004
 C         -0.151 -0.074 -0.050   -0.063 -0.053  0.026    0.028 -0.031 -0.004
 C         -0.159 -0.080  0.037   -0.078 -0.010 -0.015   -0.004 -0.024 -0.002
 C          0.170 -0.117  0.022   -0.040  0.039  0.042    0.190 -0.083  0.097
 C          0.162 -0.109 -0.044   -0.064  0.018 -0.013   -0.073  0.080  0.090
 C         -0.002  0.023  0.073    0.043 -0.043 -0.064   -0.026  0.013 -0.040
 C         -0.033  0.029 -0.000    0.051  0.061 -0.062   -0.011  0.019 -0.042
 C         -0.022  0.018  0.024    0.100 -0.021  0.185   -0.043 -0.067 -0.188
 C          0.005  0.045 -0.052    0.097 -0.035  0.177    0.089 -0.086  0.055
 C          0.005  0.045 -0.052    0.097 -0.035  0.177    0.089 -0.086  0.055
 C         -0.022  0.018  0.024    0.100 -0.021  0.185   -0.043 -0.067 -0.188
 C         -0.033  0.029 -0.000    0.051  0.061 -0.062   -0.011  0.019 -0.042
 C         -0.002  0.023  0.073    0.043 -0.043 -0.064   -0.026  0.013 -0.040
 C          0.047  0.043  0.044    0.006 -0.083 -0.088   -0.084  0.182  0.074
 C         -0.028  0.059  0.041   -0.056 -0.123 -0.064   -0.082 -0.047 -0.088
 C          0.037  0.094 -0.050   -0.034  0.144 -0.037    0.008  0.023  0.033
 C         -0.023  0.098 -0.040    0.016  0.105 -0.071    0.002  0.021  0.014
 C         -0.023  0.098 -0.040    0.016  0.105 -0.071    0.002  0.021  0.014
 C          0.037  0.094 -0.050   -0.034  0.144 -0.037    0.008  0.023  0.033
 C         -0.028  0.059  0.041   -0.056 -0.123 -0.064   -0.082 -0.047 -0.088
 C          0.047  0.043  0.044    0.006 -0.083 -0.088   -0.084  0.182  0.074
 C          0.021 -0.038  0.026    0.019 -0.007 -0.061   -0.080  0.024  0.050
 C          0.041 -0.037 -0.017    0.110 -0.036  0.155    0.185 -0.111  0.123
 C         -0.071 -0.035  0.027    0.020  0.023 -0.062   -0.047  0.004  0.005
 C         -0.052 -0.035 -0.019    0.106 -0.024  0.156    0.065 -0.063 -0.009
 C         -0.052 -0.035 -0.019    0.106 -0.024  0.156    0.065 -0.063 -0.009
 C         -0.071 -0.035  0.027    0.020  0.023 -0.062   -0.047  0.004  0.005
 C          0.041 -0.037 -0.017    0.110 -0.036  0.155    0.185 -0.111  0.123
 C          0.021 -0.038  0.026    0.019 -0.007 -0.061   -0.080  0.024  0.050
 C          0.004  0.059  0.103    0.035 -0.088 -0.096   -0.054  0.028 -0.044
 C         -0.003  0.110 -0.084    0.048  0.116 -0.086    0.004 -0.001  0.022
 C         -0.004  0.060  0.088    0.018 -0.089 -0.019   -0.080 -0.090 -0.175
 C         -0.000  0.116 -0.101    0.028  0.099 -0.011    0.023 -0.048  0.062
 C         -0.000  0.116 -0.101    0.028  0.099 -0.011    0.023 -0.048  0.062
 C         -0.004  0.060  0.088    0.018 -0.089 -0.019   -0.080 -0.090 -0.175
 C         -0.003  0.110 -0.084    0.048  0.116 -0.086    0.004 -0.001  0.022
 C          0.004  0.059  0.103    0.035 -0.088 -0.096   -0.054  0.028 -0.044
 C          0.156 -0.116 -0.031   -0.045  0.028 -0.032   -0.109  0.161  0.104
 C         -0.142 -0.069 -0.026   -0.081 -0.094 -0.041   -0.058 -0.071 -0.029
 C          0.156 -0.113 -0.004   -0.053  0.099 -0.016    0.024  0.033  0.072
 C         -0.140 -0.059  0.003   -0.060 -0.018 -0.037   -0.025 -0.042 -0.003
 C         -0.140 -0.059  0.003   -0.060 -0.018 -0.037   -0.025 -0.042 -0.003
 C          0.156 -0.113 -0.004   -0.053  0.099 -0.016    0.024  0.033  0.072
 C         -0.142 -0.069 -0.026   -0.081 -0.094 -0.041   -0.058 -0.071 -0.029
 C          0.156 -0.116 -0.031   -0.045  0.028 -0.032   -0.109  0.161  0.104
 TransDip  -0.001  0.000  0.000   -0.000  0.000  0.001    0.000  0.000 -0.000

 Mode:                10                     11                     12
 Frequency:       363.40                 363.88                 366.24
 Force Cnst:      0.9337                 0.9362                 0.9483
 Red. Mass:      12.0000                12.0000                12.0000
 IR Active:          YES                    YES                    YES
 IR Intens:        0.000                  0.001                  0.002
 Raman Active:       NO                     NO                     NO 
               X      Y      Z        X      Y      Z        X      Y      Z
 C          0.078 -0.005  0.001   -0.004  0.005 -0.031    0.191 -0.012 -0.048
 C          0.090 -0.012  0.071   -0.061  0.002  0.005    0.193 -0.006 -0.045
 C          0.090 -0.012  0.071   -0.061  0.002  0.005    0.193 -0.006 -0.045
 C          0.078 -0.005  0.001   -0.004  0.005 -0.031    0.191 -0.012 -0.048
 C          0.006 -0.013 -0.125   -0.005 -0.082  0.033    0.003 -0.019  0.155
 C          0.008  0.059 -0.128   -0.001 -0.042  0.049    0.008 -0.011  0.117
 C          0.008  0.059 -0.128   -0.001 -0.042  0.049    0.008 -0.011  0.117
 C          0.006 -0.013 -0.125   -0.005 -0.082  0.033    0.003 -0.019  0.155
 C          0.006 -0.031 -0.011    0.044  0.212  0.034   -0.053 -0.018  0.009
 C         -0.065 -0.043 -0.011    0.004  0.222  0.025   -0.054  0.003  0.012
 C         -0.065 -0.043 -0.011    0.004  0.222  0.025   -0.054  0.003  0.012
 C          0.006 -0.031 -0.011    0.044  0.212  0.034   -0.053 -0.018  0.009
 C          0.024  0.005 -0.014    0.098 -0.053 -0.069    0.156 -0.010 -0.067
 C          0.027  0.032 -0.005   -0.042  0.032 -0.034   -0.005  0.081 -0.040
 C         -0.126 -0.100  0.089   -0.069 -0.018  0.025    0.150 -0.002 -0.061
 C          0.199  0.040  0.122   -0.038  0.012  0.001   -0.005 -0.064 -0.052
 C          0.199  0.040  0.122   -0.038  0.012  0.001   -0.005 -0.064 -0.052
 C         -0.126 -0.100  0.089   -0.069 -0.018  0.025    0.150 -0.002 -0.061
 C          0.027  0.032 -0.005   -0.042  0.032 -0.034   -0.005  0.081 -0.040
 C          0.024  0.005 -0.014    0.098 -0.053 -0.069    0.156 -0.010 -0.067
 C          0.011 -0.042 -0.105    0.092 -0.096 -0.168    0.023  0.005  0.082
 C         -0.066 -0.042  0.013   -0.084 -0.125  0.161    0.021 -0.028  0.076
 C          0.090  0.051  0.053   -0.039 -0.026 -0.056   -0.025  0.001  0.031
 C         -0.025  0.104 -0.146    0.019 -0.059  0.097   -0.033  0.011  0.013
 C         -0.025  0.104 -0.146    0.019 -0.059  0.097   -0.033  0.011  0.013
 C          0.090  0.051  0.053   -0.039 -0.026 -0.056   -0.025  0.001  0.031
 C         -0.066 -0.042  0.013   -0.084 -0.125  0.161    0.021 -0.028  0.076
 C          0.011 -0.042 -0.105    0.092 -0.096 -0.168    0.023  0.005  0.082
 C          0.020 -0.030 -0.024    0.042  0.025 -0.065   -0.055  0.086  0.067
 C          0.033  0.021  0.035    0.063  0.138  0.016   -0.082 -0.118 -0.060
 C         -0.081  0.120 -0.066   -0.026  0.119  0.034   -0.068  0.141 -0.037
 C         -0.112 -0.159  0.046   -0.013  0.052  0.059   -0.075 -0.104  0.043
 C         -0.112 -0.159  0.046   -0.013  0.052  0.059   -0.075 -0.104  0.043
 C         -0.081  0.120 -0.066   -0.026  0.119  0.034   -0.068  0.141 -0.037
 C          0.033  0.021  0.035    0.063  0.138  0.016   -0.082 -0.118 -0.060
 C          0.020 -0.030 -0.024    0.042  0.025 -0.065   -0.055  0.086  0.067
 C         -0.035 -0.028 -0.018    0.096 -0.086 -0.106    0.148 -0.013 -0.076
 C          0.072  0.048  0.004   -0.034 -0.019 -0.007   -0.065  0.031 -0.039
 C         -0.123 -0.057  0.077   -0.046 -0.085  0.050    0.147  0.008 -0.072
 C          0.190  0.047  0.138   -0.057 -0.022 -0.037   -0.060 -0.002 -0.033
 C          0.190  0.047  0.138   -0.057 -0.022 -0.037   -0.060 -0.002 -0.033
 C         -0.123 -0.057  0.077   -0.046 -0.085  0.050    0.147  0.008 -0.072
 C          0.072  0.048  0.004   -0.034 -0.019 -0.007   -0.065  0.031 -0.039
 C         -0.035 -0.028 -0.018    0.096 -0.086 -0.106    0.148 -0.013 -0.076
 C          0.025 -0.044 -0.051    0.055 -0.084 -0.184   -0.043  0.058  0.090
 C         -0.076 -0.041  0.001   -0.052 -0.121  0.170   -0.054 -0.065  0.061
 C          0.040  0.025  0.035    0.021 -0.010 -0.105   -0.048 -0.015  0.011
 C         -0.069  0.127 -0.110   -0.011 -0.064  0.133   -0.051  0.034 -0.003
 C         -0.069  0.127 -0.110   -0.011 -0.064  0.133   -0.051  0.034 -0.003
 C          0.040  0.025  0.035    0.021 -0.010 -0.105   -0.048 -0.015  0.011
 C         -0.076 -0.041  0.001   -0.052 -0.121  0.170   -0.054 -0.065  0.061
 C          0.025 -0.044 -0.051    0.055 -0.084 -0.184   -0.043  0.058  0.090
 C         -0.003  0.033 -0.009    0.039 -0.011 -0.046   -0.024  0.115 -0.004
 C          0.050 -0.013  0.079    0.051  0.079  0.024   -0.107 -0.152 -0.068
 C         -0.056  0.098 -0.018   -0.042  0.065 -0.025   -0.086  0.179 -0.032
 C         -0.134 -0.150  0.076    0.003  0.039  0.020   -0.048 -0.114 -0.028
 C         -0.134 -0.150  0.076    0.003  0.039  0.020   -0.048 -0.114 -0.028
 C         -0.056  0.098 -0.018   -0.042  0.065 -0.025   -0.086  0.179 -0.032
 C          0.050 -0.013  0.079    0.051  0.079  0.024   -0.107 -0.152 -0.068
 C         -0.003  0.033 -0.009    0.039 -0.011 -0.046   -0.024  0.115 -0.004
 TransDip   0.001  0.000  0.000   -0.001 -0.000 -0.000   -0.001 -0.000  0.001

 Mode:                13                     14                     15
 Frequency:       418.46                 418.70                 419.10
 Force Cnst:      1.2380                 1.2395                 1.2418
 Red. Mass:      12.0000                12.0000                12.0000
 IR Active:          YES                    YES                    YES
 IR Intens:        0.001                  0.000                  0.001
 Raman Active:       NO                     NO                     NO 
               X      Y      Z        X      Y      Z        X      Y      Z
 C         -0.026  0.029 -0.143   -0.019 -0.038  0.077   -0.052 -0.109 -0.039
 C         -0.040  0.061 -0.123    0.002 -0.013 -0.094    0.025 -0.113  0.000
 C         -0.040  0.061 -0.123    0.002 -0.013 -0.094    0.025 -0.113  0.000
 C         -0.026  0.029 -0.143   -0.019 -0.038  0.077   -0.052 -0.109 -0.039
 C          0.104 -0.036  0.002    0.023 -0.004  0.005    0.035  0.185  0.028
 C          0.138 -0.031 -0.072    0.029  0.064  0.000    0.027  0.058 -0.001
 C          0.138 -0.031 -0.072    0.029  0.064  0.000    0.027  0.058 -0.001
 C          0.104 -0.036  0.002    0.023 -0.004  0.005    0.035  0.185  0.028
 C         -0.141 -0.051  0.125    0.027 -0.001  0.002    0.025  0.028 -0.005
 C         -0.122  0.024  0.127   -0.078  0.006  0.010   -0.069  0.030  0.026
 C         -0.122  0.024  0.127   -0.078  0.006  0.010   -0.069  0.030  0.026
 C         -0.141 -0.051  0.125    0.027 -0.001  0.002    0.025  0.028 -0.005
 C         -0.043 -0.071 -0.068   -0.015 -0.041  0.118   -0.034  0.007 -0.070
 C          0.045  0.010 -0.131   -0.023 -0.041  0.112   -0.093 -0.150 -0.071
 C         -0.051  0.119 -0.032    0.007  0.011 -0.116    0.030  0.007  0.076
 C          0.020  0.055 -0.099    0.020  0.006 -0.136    0.071 -0.153  0.015
 C          0.020  0.055 -0.099    0.020  0.006 -0.136    0.071 -0.153  0.015
 C         -0.051  0.119 -0.032    0.007  0.011 -0.116    0.030  0.007  0.076
 C          0.045  0.010 -0.131   -0.023 -0.041  0.112   -0.093 -0.150 -0.071
 C         -0.043 -0.071 -0.068   -0.015 -0.041  0.118   -0.034  0.007 -0.070
 C          0.014 -0.078  0.047    0.094 -0.008  0.037    0.020  0.176 -0.002
 C          0.024  0.021  0.052   -0.067  0.018 -0.014    0.030  0.175  0.063
 C          0.120 -0.033 -0.057    0.122  0.033 -0.045    0.076 -0.024 -0.058
 C          0.157 -0.001 -0.078   -0.082  0.035  0.029   -0.047 -0.029  0.028
 C          0.157 -0.001 -0.078   -0.082  0.035  0.029   -0.047 -0.029  0.028
 C          0.120 -0.033 -0.057    0.122  0.033 -0.045    0.076 -0.024 -0.058
 C          0.024  0.021  0.052   -0.067  0.018 -0.014    0.030  0.175  0.063
 C          0.014 -0.078  0.047    0.094 -0.008  0.037    0.020  0.176 -0.002
 C         -0.110 -0.110  0.109    0.082 -0.052  0.084    0.003  0.029 -0.093
 C         -0.084 -0.022  0.067    0.103  0.036 -0.102    0.063 -0.010 -0.004
 C         -0.044  0.013  0.033   -0.129  0.015  0.102   -0.093 -0.010 -0.003
 C         -0.084  0.097  0.123   -0.119 -0.001 -0.069   -0.033  0.019  0.121
 C         -0.084  0.097  0.123   -0.119 -0.001 -0.069   -0.033  0.019  0.121
 C         -0.044  0.013  0.033   -0.129  0.015  0.102   -0.093 -0.010 -0.003
 C         -0.084 -0.022  0.067    0.103  0.036 -0.102    0.063 -0.010 -0.004
 C         -0.110 -0.110  0.109    0.082 -0.052  0.084    0.003  0.029 -0.093
 C          0.005 -0.026 -0.016    0.038 -0.019  0.073    0.008  0.132 -0.000
 C          0.144  0.013 -0.122   -0.029 -0.007  0.056   -0.045 -0.164 -0.038
 C          0.001  0.023 -0.000   -0.016  0.007 -0.060    0.034  0.131  0.042
 C          0.123  0.014 -0.104    0.059  0.007 -0.083    0.050 -0.168 -0.028
 C          0.123  0.014 -0.104    0.059  0.007 -0.083    0.050 -0.168 -0.028
 C          0.001  0.023 -0.000   -0.016  0.007 -0.060    0.034  0.131  0.042
 C          0.144  0.013 -0.122   -0.029 -0.007  0.056   -0.045 -0.164 -0.038
 C          0.005 -0.026 -0.016    0.038 -0.019  0.073    0.008  0.132 -0.000
 C         -0.015 -0.087  0.103    0.168 -0.036  0.036    0.056  0.106 -0.056
 C          0.025  0.039  0.097   -0.164  0.002 -0.022   -0.036  0.098  0.100
 C          0.008 -0.063  0.051    0.179  0.038 -0.053    0.072  0.005 -0.042
 C          0.055  0.022  0.027   -0.165  0.048  0.057   -0.064  0.004  0.038
 C          0.055  0.022  0.027   -0.165  0.048  0.057   -0.064  0.004  0.038
 C          0.008 -0.063  0.051    0.179  0.038 -0.053    0.072  0.005 -0.042
 C          0.025  0.039  0.097   -0.164  0.002 -0.022   -0.036  0.098  0.100
 C         -0.015 -0.087  0.103    0.168 -0.036  0.036    0.056  0.106 -0.056
 C         -0.066 -0.084  0.009    0.013 -0.058  0.167   -0.021 -0.028 -0.108
 C         -0.061  0.053  0.030    0.040  0.020 -0.175    0.070 -0.105  0.071
 C         -0.034 -0.016 -0.010   -0.062 -0.040  0.170   -0.104 -0.095 -0.097
 C         -0.063  0.114  0.054   -0.039  0.014 -0.166   -0.004 -0.031  0.108
 C         -0.063  0.114  0.054   -0.039  0.014 -0.166   -0.004 -0.031  0.108
 C         -0.034 -0.016 -0.010   -0.062 -0.040  0.170   -0.104 -0.095 -0.097
 C         -0.061  0.053  0.030    0.040  0.020 -0.175    0.070 -0.105  0.071
 C         -0.066 -0.084  0.009    0.013 -0.058  0.167   -0.021 -0.028 -0.108
 TransDip  -0.000 -0.000 -0.001   -0.000  0.000 -0.000   -0.000 -0.001 -0.000

 Mode:                16                     17                     18
 Frequency:       419.35                 419.73                 445.89
 Force Cnst:      1.2433                 1.2456                 1.4057
 Red. Mass:      12.0000                12.0000                12.0000
 IR Active:          YES                    YES                    NO 
 IR Intens:        0.000                  0.001                  0.000
 Raman Active:       NO                     NO                     YES
               X      Y      Z        X      Y      Z        X      Y      Z
 C         -0.028 -0.027  0.128   -0.052 -0.128 -0.036    0.100 -0.077  0.014
 C         -0.028  0.005  0.144    0.029 -0.133 -0.030   -0.187 -0.057 -0.021
 C         -0.028  0.005  0.144    0.029 -0.133 -0.030    0.187  0.057  0.021
 C         -0.028 -0.027  0.128   -0.052 -0.128 -0.036   -0.100  0.077 -0.014
 C          0.140 -0.028  0.075    0.010  0.093  0.007    0.018  0.053 -0.036
 C          0.108 -0.007 -0.006    0.021  0.193  0.019    0.008 -0.012  0.005
 C          0.108 -0.007 -0.006    0.021  0.193  0.019   -0.008  0.012 -0.005
 C          0.140 -0.028  0.075    0.010  0.093  0.007   -0.018 -0.053  0.036
 C         -0.144  0.063 -0.119   -0.055  0.033  0.002   -0.038 -0.103 -0.059
 C         -0.131 -0.016 -0.129    0.050  0.031  0.037   -0.016  0.090 -0.038
 C         -0.131 -0.016 -0.129    0.050  0.031  0.037    0.016 -0.090  0.038
 C         -0.144  0.063 -0.119   -0.055  0.033  0.002    0.038  0.103  0.059
 C          0.034 -0.046  0.107   -0.104 -0.156 -0.026    0.039 -0.024  0.007
 C         -0.050 -0.084  0.035   -0.038 -0.015  0.026    0.194 -0.114  0.058
 C          0.038 -0.001  0.122    0.069 -0.154 -0.031   -0.091 -0.029 -0.008
 C         -0.045  0.102  0.069    0.043 -0.016 -0.053   -0.184 -0.043 -0.054
 C         -0.045  0.102  0.069    0.043 -0.016 -0.053    0.184  0.043  0.054
 C          0.038 -0.001  0.122    0.069 -0.154 -0.031    0.091  0.029  0.008
 C         -0.050 -0.084  0.035   -0.038 -0.015  0.026   -0.194  0.114 -0.058
 C          0.034 -0.046  0.107   -0.104 -0.156 -0.026   -0.039  0.024 -0.007
 C          0.131 -0.015  0.067   -0.088  0.008 -0.053   -0.063  0.071  0.147
 C          0.147 -0.048  0.069    0.080 -0.006  0.052    0.105  0.097 -0.184
 C          0.013  0.061 -0.045    0.015  0.176 -0.013    0.008 -0.014 -0.013
 C          0.030 -0.036 -0.066    0.032  0.174  0.053   -0.006 -0.041  0.039
 C          0.030 -0.036 -0.066    0.032  0.174  0.053    0.006  0.041 -0.039
 C          0.013  0.061 -0.045    0.015  0.176 -0.013   -0.008  0.014  0.013
 C          0.147 -0.048  0.069    0.080 -0.006  0.052   -0.105 -0.097  0.184
 C          0.131 -0.015  0.067   -0.088  0.008 -0.053    0.063 -0.071 -0.147
 C         -0.079  0.032 -0.040   -0.106 -0.004 -0.027   -0.026  0.027  0.048
 C         -0.111  0.120 -0.102   -0.030  0.027 -0.074   -0.084 -0.188 -0.122
 C         -0.094 -0.078 -0.134    0.031  0.015  0.098   -0.038  0.195 -0.083
 C         -0.056 -0.012 -0.045    0.095 -0.009  0.048   -0.015 -0.001  0.016
 C         -0.056 -0.012 -0.045    0.095 -0.009  0.048    0.015  0.001 -0.016
 C         -0.094 -0.078 -0.134    0.031  0.015  0.098    0.038 -0.195  0.083
 C         -0.111  0.120 -0.102   -0.030  0.027 -0.074    0.084  0.188  0.122
 C         -0.079  0.032 -0.040   -0.106 -0.004 -0.027    0.026 -0.027 -0.048
 C          0.134 -0.040  0.103   -0.074 -0.145 -0.039   -0.028  0.032  0.059
 C          0.010 -0.007  0.000    0.009  0.112  0.010    0.073 -0.047  0.019
 C          0.142 -0.038  0.112    0.040 -0.153 -0.009    0.065  0.047 -0.096
 C          0.003  0.040  0.016    0.029  0.110 -0.001   -0.044 -0.031 -0.013
 C          0.003  0.040  0.016    0.029  0.110 -0.001    0.044  0.031  0.013
 C          0.142 -0.038  0.112    0.040 -0.153 -0.009   -0.065 -0.047  0.096
 C          0.010 -0.007  0.000    0.009  0.112  0.010   -0.073  0.047 -0.019
 C          0.134 -0.040  0.103   -0.074 -0.145 -0.039    0.028 -0.032 -0.059
 C          0.013  0.041 -0.032   -0.100  0.030 -0.048   -0.055  0.065  0.121
 C          0.048 -0.045 -0.044    0.102  0.017  0.072    0.054  0.010 -0.050
 C         -0.012  0.073 -0.095   -0.066  0.109 -0.051   -0.057 -0.070 -0.052
 C          0.021 -0.046 -0.117    0.086  0.094  0.093    0.049 -0.139  0.088
 C          0.021 -0.046 -0.117    0.086  0.094  0.093   -0.049  0.139 -0.088
 C         -0.012  0.073 -0.095   -0.066  0.109 -0.051    0.057  0.070  0.052
 C          0.048 -0.045 -0.044    0.102  0.017  0.072   -0.054 -0.010  0.050
 C          0.013  0.041 -0.032   -0.100  0.030 -0.048    0.055 -0.065 -0.121
 C         -0.057 -0.027 -0.014   -0.108 -0.108  0.018    0.030 -0.012  0.007
 C         -0.070  0.111 -0.012    0.008 -0.041 -0.059    0.041 -0.036 -0.015
 C         -0.068 -0.080 -0.046   -0.017 -0.050  0.052    0.092 -0.034  0.006
 C         -0.041  0.033  0.002    0.087 -0.101 -0.038    0.026  0.000 -0.005
 C         -0.041  0.033  0.002    0.087 -0.101 -0.038   -0.026 -0.000  0.005
 C         -0.068 -0.080 -0.046   -0.017 -0.050  0.052   -0.092  0.034 -0.006
 C         -0.070  0.111 -0.012    0.008 -0.041 -0.059   -0.041  0.036  0.015
 C         -0.057 -0.027 -0.014   -0.108 -0.108  0.018   -0.030  0.012 -0.007
 TransDip  -0.000 -0.000  0.000   -0.001 -0.001 -0.000   -0.000 -0.000  0.000

 Mode:                19                     20                     21
 Frequency:       447.00                 448.57                 449.20
 Force Cnst:      1.4127                 1.4226                 1.4266
 Red. Mass:      12.0000                12.0000                12.0000
 IR Active:          NO                     NO                     NO 
 IR Intens:        0.000                  0.000                  0.000
 Raman Active:       YES                    YES                    YES
               X      Y      Z        X      Y      Z        X      Y      Z
 C          0.048 -0.022 -0.022   -0.136  0.009  0.000   -0.175  0.060  0.032
 C          0.007  0.002 -0.020   -0.155  0.001  0.030    0.024  0.047 -0.018
 C         -0.007 -0.002  0.020    0.155 -0.001 -0.030   -0.024 -0.047  0.018
 C         -0.048  0.022  0.022    0.136 -0.009 -0.000    0.175 -0.060 -0.032
 C         -0.055  0.010 -0.006    0.043  0.009 -0.209    0.001  0.011 -0.057
 C         -0.056  0.026 -0.232    0.016 -0.007 -0.088   -0.010  0.052 -0.072
 C          0.056 -0.026  0.232   -0.016  0.007  0.088    0.010 -0.052  0.072
 C          0.055 -0.010  0.006   -0.043 -0.009  0.209   -0.001 -0.011  0.057
 C          0.029  0.144  0.030   -0.010  0.062  0.055    0.012 -0.143 -0.078
 C         -0.016  0.146  0.008    0.004 -0.086  0.017    0.023  0.117 -0.054
 C          0.016 -0.146 -0.008   -0.004  0.086 -0.017   -0.023 -0.117  0.054
 C         -0.029 -0.144 -0.030    0.010 -0.062 -0.055   -0.012  0.143  0.078
 C          0.115 -0.100 -0.026   -0.000 -0.020 -0.024   -0.169  0.059  0.061
 C         -0.036  0.012 -0.047   -0.019 -0.041 -0.002   -0.027 -0.006  0.032
 C          0.089  0.072  0.002   -0.117 -0.019  0.035    0.171  0.080 -0.063
 C         -0.073 -0.008 -0.056    0.072  0.064  0.064   -0.004  0.016 -0.017
 C          0.073  0.008  0.056   -0.072 -0.064 -0.064    0.004 -0.016  0.017
 C         -0.089 -0.072 -0.002    0.117  0.019 -0.035   -0.171 -0.080  0.063
 C          0.036 -0.012  0.047    0.019  0.041  0.002    0.027  0.006 -0.032
 C         -0.115  0.100  0.026    0.000  0.020  0.024    0.169 -0.059 -0.061
 C         -0.079  0.028  0.112    0.067  0.011 -0.135   -0.025  0.016  0.017
 C         -0.071 -0.022  0.078   -0.000 -0.030 -0.049    0.037 -0.015 -0.038
 C         -0.018 -0.010 -0.127   -0.027  0.023 -0.038    0.076  0.064  0.145
 C          0.002  0.017 -0.087    0.044 -0.078  0.073   -0.094  0.087 -0.178
 C         -0.002 -0.017  0.087   -0.044  0.078 -0.073    0.094 -0.087  0.178
 C          0.018  0.010  0.127    0.027 -0.023  0.038   -0.076 -0.064 -0.145
 C          0.071  0.022 -0.078    0.000  0.030  0.049   -0.037  0.015  0.038
 C          0.079 -0.028 -0.112   -0.067 -0.011  0.135    0.025 -0.016 -0.017
 C          0.057 -0.023 -0.014   -0.014  0.125  0.108    0.052 -0.181 -0.099
 C          0.016  0.086  0.035   -0.028  0.031  0.054    0.000 -0.032  0.024
 C         -0.012  0.127 -0.028    0.047 -0.087 -0.017    0.007  0.070 -0.022
 C         -0.078 -0.061  0.028   -0.011 -0.006 -0.028    0.051  0.189 -0.089
 C          0.078  0.061 -0.028    0.011  0.006  0.028   -0.051 -0.189  0.089
 C          0.012 -0.127  0.028   -0.047  0.087  0.017   -0.007 -0.070  0.022
 C         -0.016 -0.086 -0.035    0.028 -0.031 -0.054   -0.000  0.032 -0.024
 C         -0.057  0.023  0.014    0.014 -0.125 -0.108   -0.052  0.181  0.099
 C         -0.119  0.001  0.151    0.052 -0.021 -0.073   -0.049  0.048  0.029
 C         -0.130  0.035 -0.083   -0.026  0.037 -0.039    0.081 -0.070  0.103
 C         -0.124 -0.021  0.142   -0.030 -0.027 -0.006    0.090  0.047 -0.048
 C         -0.127  0.006 -0.072    0.056  0.020  0.040   -0.043 -0.039 -0.064
 C          0.127 -0.006  0.072   -0.056 -0.020 -0.040    0.043  0.039  0.064
 C          0.124  0.021 -0.142    0.030  0.027  0.006   -0.090 -0.047  0.048
 C          0.130 -0.035  0.083    0.026 -0.037  0.039   -0.081  0.070 -0.103
 C          0.119 -0.001 -0.151   -0.052  0.021  0.073    0.049 -0.048 -0.029
 C         -0.007 -0.020  0.002   -0.009  0.152  0.159    0.029 -0.030  0.018
 C          0.017  0.047 -0.014   -0.021 -0.123  0.113   -0.052 -0.161  0.102
 C         -0.013  0.007 -0.033    0.012  0.112  0.145    0.053  0.061  0.145
 C          0.005 -0.025 -0.009    0.007 -0.106  0.131   -0.035 -0.063  0.008
 C         -0.005  0.025  0.009   -0.007  0.106 -0.131    0.035  0.063 -0.008
 C          0.013 -0.007  0.033   -0.012 -0.112 -0.145   -0.053 -0.061 -0.145
 C         -0.017 -0.047  0.014    0.021  0.123 -0.113    0.052  0.161 -0.102
 C          0.007  0.020 -0.002    0.009 -0.152 -0.159   -0.029  0.030 -0.018
 C          0.152 -0.170 -0.071    0.089 -0.086 -0.001   -0.011 -0.062 -0.021
 C         -0.044 -0.049  0.028   -0.160 -0.135 -0.054   -0.054 -0.050 -0.008
 C          0.057 -0.058 -0.039    0.114 -0.171  0.014    0.029 -0.039 -0.004
 C         -0.157 -0.159  0.032   -0.058 -0.077 -0.021   -0.111 -0.039  0.003
 C          0.157  0.159 -0.032    0.058  0.077  0.021    0.111  0.039 -0.003
 C         -0.057  0.058  0.039   -0.114  0.171 -0.014   -0.029  0.039  0.004
 C          0.044  0.049 -0.028    0.160  0.135  0.054    0.054  0.050  0.008
 C         -0.152  0.170  0.071   -0.089  0.086  0.001    0.011  0.062  0.021
 TransDip   0.000 -0.000 -0.000   -0.000  0.000  0.000    0.000 -0.000  0.000

 Mode:                22                     23                     24
 Frequency:       450.47                 498.26                 498.60
 Force Cnst:      1.4347                 1.7553                 1.7577
 Red. Mass:      12.0000                12.0000                12.0000
 IR Active:          NO                     NO                     NO 
 IR Intens:        0.000                  0.000                  0.000
 Raman Active:       YES                    YES                    YES
               X      Y      Z        X      Y      Z        X      Y      Z
 C         -0.079  0.010 -0.025   -0.040 -0.000  0.052   -0.218  0.025  0.005
 C         -0.125 -0.011 -0.017   -0.114  0.007 -0.010   -0.151  0.007 -0.027
 C          0.125  0.011  0.017    0.114 -0.007  0.010    0.151 -0.007  0.027
 C          0.079 -0.010  0.025    0.040  0.000 -0.052    0.218 -0.025 -0.005
 C         -0.054 -0.017  0.158   -0.008 -0.038 -0.001   -0.007 -0.018  0.225
 C         -0.068  0.006 -0.087    0.001 -0.015  0.135    0.008 -0.040  0.138
 C          0.068 -0.006  0.087   -0.001  0.015 -0.135   -0.008  0.040 -0.138
 C          0.054  0.017 -0.158    0.008  0.038  0.001    0.007  0.018 -0.225
 C          0.014 -0.107 -0.004    0.034  0.127  0.017   -0.002  0.202  0.031
 C         -0.041 -0.162 -0.000   -0.048  0.026 -0.001    0.044  0.162  0.008
 C          0.041  0.162  0.000    0.048 -0.026  0.001   -0.044 -0.162 -0.008
 C         -0.014  0.107  0.004   -0.034 -0.127 -0.017    0.002 -0.202 -0.031
 C          0.095 -0.050 -0.079   -0.111  0.045  0.076   -0.048 -0.019  0.004
 C         -0.106  0.080 -0.005    0.173 -0.111  0.094   -0.058 -0.035  0.002
 C          0.023  0.026 -0.041   -0.014  0.044 -0.015    0.107  0.072 -0.062
 C         -0.123 -0.065 -0.011   -0.068 -0.001 -0.037   -0.060  0.013 -0.023
 C          0.123  0.065  0.011    0.068  0.001  0.037    0.060 -0.013  0.023
 C         -0.023 -0.026  0.041    0.014 -0.044  0.015   -0.107 -0.072  0.062
 C          0.106 -0.080  0.005   -0.173  0.111 -0.094    0.058  0.035 -0.002
 C         -0.095  0.050  0.079    0.111 -0.045 -0.076    0.048  0.019 -0.004
 C          0.004  0.020  0.094    0.060 -0.074 -0.185    0.017  0.014  0.084
 C         -0.017 -0.046  0.102   -0.030 -0.036  0.035    0.050  0.005  0.040
 C         -0.104 -0.001 -0.156    0.004  0.021  0.077   -0.072 -0.050 -0.104
 C         -0.066  0.012 -0.086   -0.020 -0.018  0.075   -0.013 -0.013  0.025
 C          0.066 -0.012  0.086    0.020  0.018 -0.075    0.013  0.013 -0.025
 C          0.104  0.001  0.156   -0.004 -0.021 -0.077    0.072  0.050  0.104
 C          0.017  0.046 -0.102    0.030  0.036 -0.035   -0.050 -0.005 -0.040
 C         -0.004 -0.020 -0.094   -0.060  0.074  0.185   -0.017 -0.014 -0.084
 C          0.016 -0.061 -0.003    0.035  0.005 -0.051   -0.023  0.081  0.005
 C          0.065  0.065  0.061    0.076  0.120  0.045   -0.036  0.007 -0.061
 C         -0.057  0.066 -0.044   -0.054  0.086 -0.034    0.073 -0.124  0.067
[...]
 Red. Mass:      12.0000                12.0000                12.0000
 IR Active:          YES                    YES                    YES
 IR Intens:        0.001                  0.000                  0.000
 Raman Active:       NO                     NO                     NO 
               X      Y      Z        X      Y      Z        X      Y      Z
 C         -0.004 -0.014 -0.034    0.042  0.217 -0.015    0.031  0.142  0.066
 C         -0.001  0.013  0.034    0.013 -0.222  0.014    0.008 -0.144 -0.066
 C         -0.001  0.013  0.034    0.013 -0.222  0.014    0.008 -0.144 -0.066
 C         -0.004 -0.014 -0.034    0.042  0.217 -0.015    0.031  0.142  0.066
 C          0.248  0.009  0.033   -0.040  0.060 -0.002    0.073 -0.083 -0.003
 C         -0.247 -0.016  0.030    0.035 -0.058 -0.009   -0.076  0.080  0.022
 C         -0.247 -0.016  0.030    0.035 -0.058 -0.009   -0.076  0.080  0.022
 C          0.248  0.009  0.033   -0.040  0.060 -0.002    0.073 -0.083 -0.003
 C         -0.001  0.012 -0.030    0.014  0.000 -0.009   -0.029 -0.005  0.031
 C          0.002 -0.004  0.024   -0.014  0.002  0.010    0.028 -0.003 -0.034
 C          0.002 -0.004  0.024   -0.014  0.002  0.010    0.028 -0.003 -0.034
 C         -0.001  0.012 -0.030    0.014  0.000 -0.009   -0.029 -0.005  0.031
 C         -0.005 -0.058  0.047   -0.000 -0.154  0.130   -0.028 -0.013 -0.046
 C          0.016  0.050  0.038   -0.023 -0.060 -0.021   -0.006 -0.092 -0.115
 C         -0.036  0.002 -0.081   -0.012  0.052  0.012    0.015  0.119  0.161
 C          0.023 -0.008 -0.039    0.008  0.156 -0.111    0.001  0.015 -0.001
 C          0.023 -0.008 -0.039    0.008  0.156 -0.111    0.001  0.015 -0.001
 C         -0.036  0.002 -0.081   -0.012  0.052  0.012    0.015  0.119  0.161
 C          0.016  0.050  0.038   -0.023 -0.060 -0.021   -0.006 -0.092 -0.115
 C         -0.005 -0.058  0.047   -0.000 -0.154  0.130   -0.028 -0.013 -0.046
 C         -0.133 -0.129 -0.003   -0.048 -0.192  0.049   -0.010  0.033 -0.015
 C         -0.103  0.039 -0.027    0.024 -0.009  0.007   -0.082  0.236  0.098
 C          0.093 -0.040 -0.027   -0.060  0.223 -0.039    0.059 -0.084 -0.002
 C          0.137  0.127  0.026   -0.015 -0.022 -0.009   -0.044 -0.161 -0.085
 C          0.137  0.127  0.026   -0.015 -0.022 -0.009   -0.044 -0.161 -0.085
 C          0.093 -0.040 -0.027   -0.060  0.223 -0.039    0.059 -0.084 -0.002
 C         -0.103  0.039 -0.027    0.024 -0.009  0.007   -0.082  0.236  0.098
 C         -0.133 -0.129 -0.003   -0.048 -0.192  0.049   -0.010  0.033 -0.015
 C         -0.118 -0.043 -0.011   -0.015 -0.034  0.041    0.003  0.010 -0.015
 C          0.102 -0.041 -0.030   -0.059  0.051 -0.019    0.095 -0.034 -0.037
 C          0.132  0.044 -0.019    0.005 -0.002 -0.013   -0.040 -0.022 -0.018
 C         -0.129  0.050 -0.054    0.042 -0.018  0.012   -0.085  0.061  0.038
 C         -0.129  0.050 -0.054    0.042 -0.018  0.012   -0.085  0.061  0.038
 C          0.132  0.044 -0.019    0.005 -0.002 -0.013   -0.040 -0.022 -0.018
 C          0.102 -0.041 -0.030   -0.059  0.051 -0.019    0.095 -0.034 -0.037
 C         -0.118 -0.043 -0.011   -0.015 -0.034  0.041    0.003  0.010 -0.015
 C         -0.007  0.059 -0.034   -0.039  0.170 -0.104    0.033  0.013  0.039
 C         -0.008 -0.054 -0.029    0.014  0.066  0.020   -0.021  0.106  0.098
 C          0.055  0.004  0.074    0.004 -0.056 -0.013   -0.053 -0.133 -0.136
 C         -0.030  0.006  0.036   -0.045 -0.163  0.087   -0.005 -0.018  0.004
 C         -0.030  0.006  0.036   -0.045 -0.163  0.087   -0.005 -0.018  0.004
 C          0.055  0.004  0.074    0.004 -0.056 -0.013   -0.053 -0.133 -0.136
 C         -0.008 -0.054 -0.029    0.014  0.066  0.020   -0.021  0.106  0.098
 C         -0.007  0.059 -0.034   -0.039  0.170 -0.104    0.033  0.013  0.039
 C          0.146  0.113 -0.037    0.060  0.171 -0.091    0.010 -0.030  0.019
 C          0.109 -0.031  0.014   -0.025  0.007 -0.004    0.105 -0.198 -0.148
 C         -0.101  0.037  0.010    0.081 -0.202  0.090   -0.069  0.074 -0.019
 C         -0.151 -0.101 -0.062    0.017  0.018  0.015    0.053  0.132  0.118
 C         -0.151 -0.101 -0.062    0.017  0.018  0.015    0.053  0.132  0.118
 C         -0.101  0.037  0.010    0.081 -0.202  0.090   -0.069  0.074 -0.019
 C          0.109 -0.031  0.014   -0.025  0.007 -0.004    0.105 -0.198 -0.148
 C          0.146  0.113 -0.037    0.060  0.171 -0.091    0.010 -0.030  0.019
 C          0.107  0.066  0.023    0.019  0.034 -0.038   -0.003 -0.009  0.014
 C         -0.085  0.060  0.041    0.055 -0.061  0.010   -0.081  0.054  0.049
 C         -0.118 -0.074  0.027   -0.003  0.001  0.013    0.040  0.032  0.014
 C          0.107 -0.080  0.060   -0.035  0.026 -0.015    0.077 -0.078 -0.033
 C          0.107 -0.080  0.060   -0.035  0.026 -0.015    0.077 -0.078 -0.033
 C         -0.118 -0.074  0.027   -0.003  0.001  0.013    0.040  0.032  0.014
 C         -0.085  0.060  0.041    0.055 -0.061  0.010   -0.081  0.054  0.049
 C          0.107  0.066  0.023    0.019  0.034 -0.038   -0.003 -0.009  0.014
 TransDip  -0.001 -0.000 -0.001   -0.000  0.000  0.000   -0.000 -0.000 -0.001

 Mode:               169                    170                    171
 Frequency:      1630.23                1637.89                1638.43
 Force Cnst:     18.7902                18.9671                18.9797
 Red. Mass:      12.0000                12.0000                12.0000
 IR Active:          YES                    NO                     NO 
 IR Intens:        0.002                  0.000                  0.000
 Raman Active:       NO                     YES                    YES
               X      Y      Z        X      Y      Z        X      Y      Z
 C         -0.003  0.003 -0.051   -0.021 -0.106 -0.028    0.007  0.052  0.073
 C          0.002 -0.007  0.051   -0.007  0.109  0.025    0.008 -0.056 -0.075
 C          0.002 -0.007  0.051    0.007 -0.109 -0.025   -0.008  0.056  0.075
 C         -0.003  0.003 -0.051    0.021  0.106  0.028   -0.007 -0.052 -0.073
 C         -0.036 -0.026 -0.007    0.129 -0.017  0.019    0.089  0.040  0.017
 C          0.036  0.027 -0.001   -0.125  0.014  0.014   -0.089 -0.048  0.004
 C          0.036  0.027 -0.001    0.125 -0.014 -0.014    0.089  0.048 -0.004
 C         -0.036 -0.026 -0.007   -0.129  0.017 -0.019   -0.089 -0.040 -0.017
 C         -0.079  0.044 -0.153   -0.044 -0.056  0.229   -0.008  0.000  0.023
 C          0.082 -0.004  0.158    0.040 -0.003 -0.235    0.012 -0.007 -0.028
 C          0.082 -0.004  0.158   -0.040  0.003  0.235   -0.012  0.007  0.028
 C         -0.079  0.044 -0.153    0.044  0.056 -0.229    0.008 -0.000 -0.023
 C          0.070 -0.050  0.168    0.009  0.033 -0.008   -0.028 -0.044 -0.011
 C         -0.015 -0.011  0.017   -0.035  0.005  0.077    0.045 -0.083 -0.232
 C         -0.068 -0.010 -0.173   -0.009 -0.028 -0.043    0.027  0.002  0.058
 C          0.009 -0.004 -0.014   -0.016  0.009  0.013   -0.067 -0.054  0.174
 C          0.009 -0.004 -0.014    0.016 -0.009 -0.013    0.067  0.054 -0.174
 C         -0.068 -0.010 -0.173    0.009  0.028  0.043   -0.027 -0.002 -0.058
 C         -0.015 -0.011  0.017    0.035 -0.005 -0.077   -0.045  0.083  0.232
 C          0.070 -0.050  0.168   -0.009 -0.033  0.008    0.028  0.044  0.011
 C          0.083  0.038  0.022   -0.028  0.036 -0.020   -0.072 -0.081  0.000
 C         -0.045  0.025 -0.012   -0.045 -0.011 -0.027    0.019 -0.060 -0.020
 C          0.010 -0.036  0.005    0.100 -0.147 -0.002    0.045  0.057 -0.039
 C         -0.047 -0.051 -0.012    0.121  0.103  0.012    0.050  0.140  0.075
 C         -0.047 -0.051 -0.012   -0.121 -0.103 -0.012   -0.050 -0.140 -0.075
 C          0.010 -0.036  0.005   -0.100  0.147  0.002   -0.045 -0.057  0.039
 C         -0.045  0.025 -0.012    0.045  0.011  0.027   -0.019  0.060  0.020
 C          0.083  0.038  0.022    0.028 -0.036  0.020    0.072  0.081 -0.000
 C          0.212  0.007  0.137    0.015  0.035 -0.060   -0.122 -0.025 -0.044
 C          0.056 -0.041  0.017    0.133 -0.027 -0.096    0.125 -0.019 -0.081
 C         -0.097 -0.038 -0.017   -0.178 -0.036  0.114    0.077  0.000 -0.072
 C         -0.170  0.052 -0.119    0.037  0.003  0.085   -0.139  0.058 -0.044
 C         -0.170  0.052 -0.119   -0.037 -0.003 -0.085    0.139 -0.058  0.044
 C         -0.097 -0.038 -0.017    0.178  0.036 -0.114   -0.077 -0.000  0.072
 C          0.056 -0.041  0.017   -0.133  0.027  0.096   -0.125  0.019  0.081
 C          0.212  0.007  0.137   -0.015 -0.035  0.060    0.122  0.025  0.044
 C         -0.105  0.065 -0.145   -0.000 -0.032  0.008    0.024  0.042  0.012
 C          0.018  0.010 -0.016    0.054 -0.013 -0.071   -0.093  0.110  0.200
 C          0.105  0.024  0.153    0.022  0.029  0.039   -0.038 -0.012 -0.052
 C         -0.011  0.003  0.013    0.021 -0.008 -0.016    0.105  0.062 -0.148
 C         -0.011  0.003  0.013   -0.021  0.008  0.016   -0.105 -0.062  0.148
 C          0.105  0.024  0.153   -0.022 -0.029 -0.039    0.038  0.012  0.052
 C          0.018  0.010 -0.016   -0.054  0.013  0.071    0.093 -0.110 -0.200
 C         -0.105  0.065 -0.145    0.000  0.032 -0.008   -0.024 -0.042 -0.012
 C         -0.084 -0.027 -0.008    0.031 -0.035  0.025    0.080  0.069 -0.022
 C          0.046 -0.016  0.009    0.049  0.011  0.029   -0.025  0.048  0.029
 C         -0.012  0.031 -0.013   -0.118  0.130 -0.035   -0.039 -0.053  0.046
 C          0.050  0.039  0.025   -0.133 -0.078 -0.039   -0.062 -0.116 -0.107
 C          0.050  0.039  0.025    0.133  0.078  0.039    0.062  0.116  0.107
 C         -0.012  0.031 -0.013    0.118 -0.130  0.035    0.039  0.053 -0.046
 C          0.046 -0.016  0.009   -0.049 -0.011 -0.029    0.025 -0.048 -0.029
 C         -0.084 -0.027 -0.008   -0.031  0.035 -0.025   -0.080 -0.069  0.022
 C         -0.184 -0.058 -0.163   -0.014 -0.031  0.061    0.110  0.054  0.054
 C         -0.047  0.048 -0.014   -0.112  0.058  0.116   -0.103  0.048  0.093
 C          0.085  0.055  0.016    0.155  0.084 -0.127   -0.062 -0.020  0.074
 C          0.139 -0.093  0.130   -0.030  0.013 -0.087    0.116 -0.088  0.051
 C          0.139 -0.093  0.130    0.030 -0.013  0.087   -0.116  0.088 -0.051
 C          0.085  0.055  0.016   -0.155 -0.084  0.127    0.062  0.020 -0.074
 C         -0.047  0.048 -0.014    0.112 -0.058 -0.116    0.103 -0.048 -0.093
 C         -0.184 -0.058 -0.163    0.014  0.031 -0.061   -0.110 -0.054 -0.054
 TransDip   0.000 -0.001 -0.000   -0.000  0.000  0.000    0.000 -0.000  0.000

 Mode:               172                    173                    174
 Frequency:      1639.46                1639.97                1640.66
 Force Cnst:     19.0034                19.0153                19.0314
 Red. Mass:      12.0000                12.0000                12.0000
 IR Active:          NO                     NO                     NO 
 IR Intens:        0.000                  0.000                  0.000
 Raman Active:       YES                    YES                    YES
               X      Y      Z        X      Y      Z        X      Y      Z
 C         -0.044 -0.226  0.009   -0.023 -0.083 -0.044    0.000 -0.018  0.027
 C         -0.014  0.231 -0.008    0.000  0.081  0.047   -0.004  0.019 -0.022
 C          0.014 -0.231  0.008   -0.000 -0.081 -0.047    0.004 -0.019  0.022
 C          0.044  0.226 -0.009    0.023  0.083  0.044   -0.000  0.018 -0.027
 C         -0.200  0.010 -0.025   -0.013  0.066  0.002    0.092 -0.045  0.001
 C          0.200 -0.007 -0.027    0.011 -0.062 -0.006   -0.095  0.040  0.023
 C         -0.200  0.007  0.027   -0.011  0.062  0.006    0.095 -0.040 -0.023
 C          0.200 -0.010  0.025    0.013 -0.066 -0.002   -0.092  0.045 -0.001
 C         -0.003 -0.002  0.021    0.044 -0.023  0.067    0.062 -0.029  0.107
 C          0.002 -0.003 -0.024   -0.040  0.006 -0.067   -0.067  0.002 -0.112
 C         -0.002  0.003  0.024    0.040 -0.006  0.067    0.067 -0.002  0.112
 C          0.003  0.002 -0.021   -0.044  0.023 -0.067   -0.062  0.029 -0.107
 C         -0.015  0.141 -0.140    0.025 -0.073  0.121   -0.057  0.032 -0.125
 C          0.028  0.083  0.041    0.010  0.005 -0.027    0.019  0.032  0.008
 C          0.022 -0.082 -0.021   -0.067 -0.058 -0.219    0.009  0.064  0.102
 C         -0.027 -0.123  0.121    0.003 -0.094  0.056    0.010  0.013 -0.029
 C          0.027  0.123 -0.121   -0.003  0.094 -0.056   -0.010 -0.013  0.029
 C         -0.022  0.082  0.021    0.067  0.058  0.219   -0.009 -0.064 -0.102
 C         -0.028 -0.083 -0.041   -0.010 -0.005  0.027   -0.019 -0.032 -0.008
 C          0.015 -0.141  0.140   -0.025  0.073 -0.121    0.057 -0.032  0.125
 C          0.059  0.093 -0.017   -0.070 -0.189  0.039   -0.104 -0.068 -0.019
 C          0.070 -0.063 -0.006   -0.032 -0.042 -0.046   -0.097  0.221  0.080
 C         -0.039  0.067 -0.010   -0.058  0.185 -0.027    0.013  0.016 -0.008
 C         -0.076 -0.058 -0.010    0.006  0.022  0.011   -0.044 -0.122 -0.055
 C          0.076  0.058  0.010   -0.006 -0.022 -0.011    0.044  0.122  0.055
 C          0.039 -0.067  0.010    0.058 -0.185  0.027   -0.013 -0.016  0.008
 C         -0.070  0.063  0.006    0.032  0.042  0.046    0.097 -0.221 -0.080
 C         -0.059 -0.093  0.017    0.070  0.189 -0.039    0.104  0.068  0.019
 C         -0.072  0.017 -0.072   -0.058 -0.029 -0.002   -0.193 -0.018 -0.105
 C          0.081 -0.000 -0.070   -0.114  0.069 -0.000   -0.016  0.019 -0.020
 C          0.046  0.021  0.013   -0.028 -0.004  0.026    0.129  0.047  0.006
 C         -0.051  0.029  0.007    0.145 -0.041  0.101    0.112 -0.060  0.020
 C          0.051 -0.029 -0.007   -0.145  0.041 -0.101   -0.112  0.060 -0.020
 C         -0.046 -0.021 -0.013    0.028  0.004 -0.026   -0.129 -0.047 -0.006
 C         -0.081  0.000  0.070    0.114 -0.069  0.000    0.016 -0.019  0.020
 C          0.072 -0.017  0.072    0.058  0.029  0.002    0.193  0.018  0.105
 C          0.053 -0.160  0.114   -0.052  0.081 -0.099    0.084 -0.042  0.110
 C         -0.014 -0.091 -0.035   -0.016 -0.005  0.023   -0.015 -0.029 -0.006
 C         -0.013  0.087  0.017    0.118  0.075  0.192   -0.030 -0.073 -0.084
 C          0.063  0.135 -0.099    0.018  0.093 -0.044   -0.017 -0.014  0.024
 C         -0.063 -0.135  0.099   -0.018 -0.093  0.044    0.017  0.014 -0.024
 C          0.013 -0.087 -0.017   -0.118 -0.075 -0.192    0.030  0.073  0.084
 C          0.014  0.091  0.035    0.016  0.005 -0.023    0.015  0.029  0.006
 C         -0.053  0.160 -0.114    0.052 -0.081  0.099   -0.084  0.042 -0.110
 C         -0.067 -0.085  0.044    0.084  0.167 -0.081    0.108  0.056 -0.005
 C         -0.076  0.053  0.024    0.026  0.038  0.054    0.119 -0.184 -0.128
 C          0.046 -0.064  0.030    0.074 -0.167  0.070   -0.017 -0.016  0.012
 C          0.082  0.047  0.029   -0.011 -0.017 -0.013    0.050  0.100  0.081
 C         -0.082 -0.047 -0.029    0.011  0.017  0.013   -0.050 -0.100 -0.081
 C         -0.046  0.064 -0.030   -0.074  0.167 -0.070    0.017  0.016 -0.012
 C          0.076 -0.053 -0.024   -0.026 -0.038 -0.054   -0.119  0.184  0.128
 C          0.067  0.085 -0.044   -0.084 -0.167  0.081   -0.108 -0.056  0.005
 C          0.059  0.000  0.083    0.053  0.038  0.013    0.169  0.062  0.128
 C         -0.064  0.017  0.081    0.099 -0.090 -0.012    0.013 -0.017  0.017
 C         -0.044 -0.032 -0.015    0.024  0.014 -0.027   -0.113 -0.072  0.001
 C          0.045 -0.042 -0.009   -0.118  0.074 -0.111   -0.096  0.085 -0.031
 C         -0.045  0.042  0.009    0.118 -0.074  0.111    0.096 -0.085  0.031
 C          0.044  0.032  0.015   -0.024 -0.014  0.027    0.113  0.072 -0.001
 C          0.064 -0.017 -0.081   -0.099  0.090  0.012   -0.013  0.017 -0.017
 C         -0.059 -0.000 -0.083   -0.053 -0.038 -0.013   -0.169 -0.062 -0.128
 TransDip   0.000 -0.000 -0.000   -0.000  0.000  0.000    0.000  0.000 -0.000

 STANDARD THERMODYNAMIC QUANTITIES AT   298.15 K  AND     1.00 ATM

   This Molecule has  0 Imaginary Frequencies
   Zero point vibrational energy:      239.618 kcal/mol

   Atom    1 Element C  Has Mass   12.00000
   Atom    2 Element C  Has Mass   12.00000
   Atom    3 Element C  Has Mass   12.00000
   Atom    4 Element C  Has Mass   12.00000
   Atom    5 Element C  Has Mass   12.00000
   Atom    6 Element C  Has Mass   12.00000
   Atom    7 Element C  Has Mass   12.00000
   Atom    8 Element C  Has Mass   12.00000
   Atom    9 Element C  Has Mass   12.00000
   Atom   10 Element C  Has Mass   12.00000
   Atom   11 Element C  Has Mass   12.00000
   Atom   12 Element C  Has Mass   12.00000
   Atom   13 Element C  Has Mass   12.00000
   Atom   14 Element C  Has Mass   12.00000
   Atom   15 Element C  Has Mass   12.00000
   Atom   16 Element C  Has Mass   12.00000
   Atom   17 Element C  Has Mass   12.00000
   Atom   18 Element C  Has Mass   12.00000
   Atom   19 Element C  Has Mass   12.00000
   Atom   20 Element C  Has Mass   12.00000
   Atom   21 Element C  Has Mass   12.00000
   Atom   22 Element C  Has Mass   12.00000
   Atom   23 Element C  Has Mass   12.00000
   Atom   24 Element C  Has Mass   12.00000
   Atom   25 Element C  Has Mass   12.00000
   Atom   26 Element C  Has Mass   12.00000
   Atom   27 Element C  Has Mass   12.00000
   Atom   28 Element C  Has Mass   12.00000
   Atom   29 Element C  Has Mass   12.00000
   Atom   30 Element C  Has Mass   12.00000
   Atom   31 Element C  Has Mass   12.00000
   Atom   32 Element C  Has Mass   12.00000
   Atom   33 Element C  Has Mass   12.00000
   Atom   34 Element C  Has Mass   12.00000
   Atom   35 Element C  Has Mass   12.00000
   Atom   36 Element C  Has Mass   12.00000
   Atom   37 Element C  Has Mass   12.00000
   Atom   38 Element C  Has Mass   12.00000
   Atom   39 Element C  Has Mass   12.00000
   Atom   40 Element C  Has Mass   12.00000
   Atom   41 Element C  Has Mass   12.00000
   Atom   42 Element C  Has Mass   12.00000
   Atom   43 Element C  Has Mass   12.00000
   Atom   44 Element C  Has Mass   12.00000
   Atom   45 Element C  Has Mass   12.00000
   Atom   46 Element C  Has Mass   12.00000
   Atom   47 Element C  Has Mass   12.00000
   Atom   48 Element C  Has Mass   12.00000
   Atom   49 Element C  Has Mass   12.00000
   Atom   50 Element C  Has Mass   12.00000
   Atom   51 Element C  Has Mass   12.00000
   Atom   52 Element C  Has Mass   12.00000
   Atom   53 Element C  Has Mass   12.00000
   Atom   54 Element C  Has Mass   12.00000
   Atom   55 Element C  Has Mass   12.00000
   Atom   56 Element C  Has Mass   12.00000
   Atom   57 Element C  Has Mass   12.00000
   Atom   58 Element C  Has Mass   12.00000
   Atom   59 Element C  Has Mass   12.00000
   Atom   60 Element C  Has Mass   12.00000
   Molecular Mass:   720.000000 amu
   Principal axes and moments of inertia in amu*Bohr^2:
                             1           2           3
    Eigenvalues --    21618.60123 21618.60137 21618.60159
          X               0.99999    -0.00506    -0.00030
          Y               0.00506     0.99986    -0.01591
          Z               0.00038     0.01591     0.99987
   Rotational Symmetry Number is   2
   The Molecule is an Asymmetric Top
   Translational Enthalpy:        0.889 kcal/mol
   Rotational Enthalpy:           0.889 kcal/mol
   Vibrational Enthalpy:        250.378 kcal/mol
   gas constant (RT):             0.592 kcal/mol
   Translational Entropy:        45.602  cal/mol.K
   Rotational Entropy:           36.178  cal/mol.K
   Vibrational Entropy:          50.678  cal/mol.K

   Total Enthalpy:              252.748 kcal/mol
   Total Entropy:               132.458  cal/mol.K
 Total job time:  8405.88s(wall), 49990.03s(cpu) 
 Mon Dec 12 19:14:12 2022

        *************************************************************
        *                                                           *
        *  Thank you very much for using Q-Chem.  Have a nice day.  *
        *                                                           *
        *************************************************************


