
Running Job 1 of 1 sp.in
qchem sp.in_26771.0 /tmp/pbstmp.10580992/scratch/sp/ 1
/usr/local/qchem/4.4.1-openmp/exe/qcprog.exe_s sp.in_26771.0 /tmp/pbstmp.10580992/scratch/sp/
Check license passed

                  Welcome to Q-Chem
     A Quantum Leap Into The Future Of Chemistry


 Q-Chem 4.4, Q-Chem, Inc., Pleasanton, CA (2016)

 Y. Shao,  Z. Gan,  E. Epifanovsky,  A. T. B. Gilbert,  M. Wormit,  
 J. Kussmann,  A. W. Lange,  A. Behn,  J. Deng,  X. Feng,  D. Ghosh,  
 M. Goldey,  P. R. Horn,  L. D. Jacobson,  I. Kaliman,  F.Rob,  
 R. Z. Khaliullin,  T. Kus,  A. Landau,  J. Liu,  E. I. Proynov,  Y. M. Rhee,  
 R. M. Richard,  M. A. Rohrdanz,  R. P. Steele,  E. J. Sundstrom,  
 H. L. Woodcock III,  P. M. Zimmerman,  D. Zuev,  B. Albrecht,  E. Alguire,  
 B. Austin,  S. A. Baeppler,  G. J. O. Beran,  Y. A. Bernard,  E. Berquist,  
 K. Brandhorst,  K. B. Bravaya,  S. T. Brown,  D. Casanova,  C.-M. Chang,  
 Y. Chen,  S. H. Chien,  K. D. Closser,  M. P. Coons,  D. L. Crittenden,  
 S. Dasgupta,  M. Diedenhofen,  R. A. DiStasio Jr.,  H. Do,  A. D. Dutoi,  
 R. G. Edgar,  P.-T. Fang,  S. Fatehi,  Q. Feng,  L. Fusti-Molnar,  
 A. Ghysels,  A. Golubeva-Zadorozhnaya,  J. Gomes,  A. Gunina,  
 M. W. D. Hanson-Heine,  P. H. P. Harbach,  A. W. Hauser,  E. G. Hohenstein,  
 Z. C. Holden,  K. Hui,  T.-C. Jagau,  H. Ji,  B. Kaduk,  K. Khistyaev,  
 Jaehoon Kim,  Jihan Kim,  R. A. King,  P. Klunzinger,  D. Kosenkov,  
 T. Kowalczyk,  C. M. Krauter,  A. Kunitsa,  K. U. Lao,  A. Laurent,  
 K. V. Lawler,  D. Lefrancois,  S. Lehtola,  S. V. Levchenko,  C. Y. Lin,  
 Y.-S. Lin,  F. Liu,  E. Livshits,  R. C. Lochan,  A. Luenser,  P. Manohar,  
 S. F. Manzer,  S.-P. Mao,  Y. Mao,  N. Mardirossian,  A. V. Marenich,  
 L. A. Martinez-Martinez,  S. A. Maurer,  N. J. Mayhall,  J.-M. Mewes,  
 A. F. Morrison,  K. Nanda,  C. M. Oana,  R. Olivares-Amaya,  D. P. O'Neill,  
 J. A. Parkhill,  T. M. Perrine,  R. Peverati,  P. A. Pieniazek,  F. Plasser,  
 A. Prociuk,  D. R. Rehn,  E. Rosta,  N. J. Russ,  N. Sergueev,  
 S. M. Sharada,  S. Sharma,  D. W. Small,  A. Sodt,  T. Stauch,  T. Stein,  
 D. Stuck,  Y.-C. Su,  A. J. W. Thom,  T. Tsuchimochi,  L. Vogt,  O. Vydrov,  
 T. Wang,  M. A. Watson,  J. Wenzel,  A. White,  C. F. Williams,  
 V. Vanovschi,  S. Yeganeh,  S. R. Yost,  Z.-Q. You,  I. Y. Zhang,  X. Zhang,  
 Y. Zhao,  B. R. Brooks,  G. K. L. Chan,  D. M. Chipman,  C. J. Cramer,  
 W. A. Goddard III,  M. S. Gordon,  W. J. Hehre,  A. Klamt,  
 H. F. Schaefer III,  M. W. Schmidt,  C. D. Sherrill,  D. G. Truhlar,  
 A. Warshel,  X. Xu,  A. Aspuru-Guzik,  R. Baer,  A. T. Bell,  N. A. Besley,  
 J.-D. Chai,  A. Dreuw,  B. D. Dunietz,  T. R. Furlani,  S. R. Gwaltney,  
 C.-P. Hsu,  Y. Jung,  J. Kong,  D. S. Lambrecht,  W. Liang,  C. Ochsenfeld,  
 V. A. Rassolov,  L. V. Slipchenko,  J. E. Subotnik,  T. Van Voorhis,  
 J. M. Herbert,  A. I. Krylov,  P. M. W. Gill,  M. Head-Gordon

 Contributors to earlier versions of Q-Chem not listed above: 
 R. D. Adamson,  J. Baker,  E. F. C. Byrd,  A. K. Chakraborty,  C.-L. Cheng,  
 H. Dachsel,  R. J. Doerksen,  G. Hawkins,  A. Heyden,  S. Hirata,  
 G. Kedziora,  F. J. Keil,  C. Kelley,  P. P. Korambath,  W. Kurlancheek,  
 A. M. Lee,  M. S. Lee,  D. Liotard,  I. Lotan,  P. E. Maslen,  N. Nair,  
 D. Neuhauser,  R. Olson,  B. Peters,  J. Ritchie,  N. E. Schultz,  
 N. Shenvi,  A. C. Simmonett,  K. S. Thanthiriwatte,  Q. Wu,  W. Zhang

 Please cite Q-Chem as follows:
 Y. Shao et al., Mol. Phys. 113, 184-215 (2015)
 DOI: 10.1080/00268976.2014.952696

 Q-Chem 4.4.1 for Intel X86 Linux

 Parts of Q-Chem use Armadillo 5.200.1 (Boston Tea Smuggler).
 http://arma.sourceforge.net/

 Q-Chem begins on Fri Jun 19 17:39:41 2020  

Host: 
0

     Scratch files written to /tmp/pbstmp.10580992/scratch/sp//
 Oct2916 21813_ 22044  22042 3297   
Processing $rem in /usr/local/qchem/4.4.1-openmp/config/preferences.
 MEM_TOTAL  4000 

Checking the input file for inconsistencies... 	...done.

--------------------------------------------------------------
User input:
--------------------------------------------------------------
$molecule
0 1
C     3.4825411841888196   0.6980950572615738  -0.0000000093791712
C     3.4825411860828890  -0.6980950594992998   0.0000000028988609
C    -3.4825411864794518   0.6980950585560840  -0.0000000062453617
C    -3.4825411862448803  -0.6980950570859605   0.0000000059950467
C     0.6980951430607469  -0.0000000050427334   3.4825414227237164
C    -0.6980951335756596  -0.0000000026784015   3.4825414270198500
C     0.6980951357395025   0.0000000000000000  -3.4825414274840520
C    -0.6980951438565286   0.0000000031646432  -3.4825414233621266
C    -0.0000000038677235   3.4825413048842000   0.6980950807257450
C     0.0000000000000000   3.4825413080898602  -0.6980950734287902
C     0.0000000000000000  -3.4825413084711494   0.6980950719792891
C     0.0000000035939913  -3.4825413036251085  -0.6980950752275792
C     3.0327448388327021   1.4249343469507387   1.1762245638599873
C     3.0327448459756097   1.4249343444466938  -1.1762245737367507
C     3.0327448424657200  -1.4249343513345636   1.1762245734477643
C     3.0327448440059199  -1.4249343533529892  -1.1762245646034768
C    -3.0327448437800220   1.4249343538047827   1.1762245630310884
C    -3.0327448429129502   1.4249343479325083  -1.1762245736894656
C    -3.0327448468118559  -1.4249343518160964   1.1762245705925645
C    -3.0327448403927977  -1.4249343502090959  -1.1762245625291234
C     1.4249344050461541   1.1762247363554363   3.0327448102689658
C     1.4249344115268745  -1.1762247433834718   3.0327448164915549
C    -1.4249344022974362   1.1762247353892021   3.0327448176999092
C    -1.4249344069101568  -1.1762247433327837   3.0327448215999513
C     1.4249344071037253   1.1762247418432812  -3.0327448225644074
C     1.4249344070846117  -1.1762247337236849  -3.0327448170650162
C    -1.4249344100918044   1.1762247404319659  -3.0327448181294416
C    -1.4249344080033546  -1.1762247332924722  -3.0327448105331265
C     1.1762246633712434   3.0327447548397082   1.4249342406506504
C    -1.1762246746089740   3.0327447572744970   1.4249342363985935
C     1.1762246709772184   3.0327447666968648  -1.4249342397123865
C    -1.1762246709700852   3.0327447659650080  -1.4249342394898690
C     1.1762246699002981  -3.0327447668394703   1.4249342414950297
C    -1.1762246728711907  -3.0327447674957022   1.4249342390915301
C     1.1762246739533804  -3.0327447558096705  -1.4249342331991077
C    -1.1762246660723483  -3.0327447531513596  -1.4249342352530974
C     2.6011868718899431   0.7270743339169902   2.3057166999030532
C     2.6011868784098451   0.7270743378149533  -2.3057167138575205
C     2.6011868738166983  -0.7270743389475437   2.3057167114411690
C     2.6011868737857946  -0.7270743394760274  -2.3057167086582555
C    -2.6011868755954133   0.7270743419965571   2.3057167025472567
C    -2.6011868755889926   0.7270743372991819  -2.3057167101425189
C    -2.6011868769265027  -0.7270743426092809   2.3057167131153991
C    -2.6011868702572447  -0.7270743337562194  -2.3057167043539613
C     0.7270743330189360   2.3057168752568336   2.6011867561491431
C     0.7270743414042720  -2.3057168812453726   2.6011867670860607
C    -0.7270743339455245   2.3057168779012875   2.6011867564499163
C    -0.7270743381929290  -2.3057168848864733   2.6011867671598630
C     0.7270743385447153   2.3057168847613636  -2.6011867667139832
C     0.7270743394321709  -2.3057168708941691  -2.6011867564810842
C    -0.7270743386161763   2.3057168812998716  -2.6011867665759794
C    -0.7270743356316518  -2.3057168687313068  -2.6011867560897284
C     2.3057167594054611   2.6011867163150675   0.7270742526135811
C    -2.3057167662401250   2.6011867205989052   0.7270742468397956
C     2.3057167638163838   2.6011867203356589  -0.7270742560614760
C    -2.3057167667807659   2.6011867207215533  -0.7270742575737845
C     2.3057167689124389  -2.6011867209335153   0.7270742579451343
C    -2.3057167687350484  -2.6011867212040163   0.7270742549942194
C     2.3057167669891889  -2.6011867207463082  -0.7270742440301432
C    -2.3057167626910715  -2.6011867173116632  -0.7270742488289683
$end

$rem
jobtype               freq
exchange              b3lyp
correlation           none
basis                 3-21G(d)
scf_convergence       8
max_scf_cycles        5000
mem_static            6000
mem_total             70000
$end
--------------------------------------------------------------
 Atom  12: (  0.2440989631,  3.3650128006,  1.1101960244)
         ->(  0.2440989633,  3.3650128014,  1.1101960301)
 Atom  19: ( -2.9254048544,  1.7634208806, -0.9715125775)
         ->( -2.9254048543,  1.7634208739, -0.9715125814)
 Atom  26: (  1.5038660480,  0.7015176779,  3.1397043923)
         ->(  1.5038660431,  0.7015176801,  3.1397043933)
 Atom  36: ( -0.9607622829,  2.9141397028,  1.7877942847)
         ->( -0.9607622803,  2.9141397040,  1.7877942904)
 Atom  41: ( -2.6457453544, -0.2621640634, -2.3542390058)
         ->( -2.6457453526, -0.2621640600, -2.3542390114)
 Atom  52: ( -0.5636793483,  2.0216498310,  2.8646705675)
         ->( -0.5636793454,  2.0216498375,  2.8646705685)
 Atom  50: (  0.8868928163,  1.9204615481,  2.8524355383)
         ->(  0.8868928111,  1.9204615557,  2.8524355392)
 ----------------------------------------------------------------
             Standard Nuclear Orientation (Angstroms)
    I     Atom           X                Y                Z
 ----------------------------------------------------------------
    1      C       3.4250443898    -0.9336751693    -0.1129221660
    2      C       3.5229072076     0.4490034501     0.0543188174
    3      C      -3.5229072077    -0.4490034498    -0.0543188141
    4      C      -3.4250443917     0.9336751686     0.1129221692
    5      C       0.6963879666     0.3696023869    -3.4632166357
    6      C      -0.6963683495     0.4667575812    -3.4514692652
    7      C       0.6963683520    -0.4667575790     3.4514692659
    8      C      -0.6963879671    -0.3696023854     3.4632166364
    9      C      -0.2440989633    -3.3650128014    -1.1101960301
   10      C      -0.2441028900    -3.5326658779     0.2758917710
   11      C       0.2441028902     3.5326658778    -0.2758917697
   12      C       0.2440989633     3.3650128014     1.1101960301
   13      C       2.9254114692    -1.4809412109    -1.3639150422
   14      C       2.9254048543    -1.7634208739     0.9715125814
   15      C       3.1251666296     1.3413481516    -1.0225468722
   16      C       3.1251600091     1.0588684885     1.3128807518
   17      C      -3.1251600087    -1.0588684894    -1.3128807504
   18      C      -3.1251666296    -1.3413481486     1.0225468727
   19      C      -2.9254048543     1.7634208739    -0.9715125814
   20      C      -2.9254114703     1.4809412141     1.3639150411
   21      C       1.3389934492    -0.8998284476    -3.1636828353
   22      C       1.5038831276     1.4298554235    -2.8818974397
   23      C      -1.5038660431    -0.7015176801    -3.1397043933
   24      C      -1.3389763758     1.6281661905    -2.8579189954
   25      C       1.3389763763    -1.6281661894     2.8579189964
   26      C       1.5038660431     0.7015176801     3.1397043933
   27      C      -1.5038831258    -1.4298554212     2.8818974415
   28      C      -1.3389934522     0.8998284445     3.1636828350
   29      C       0.9607622803    -2.9141397040    -1.7877942904
   30      C      -1.3859011570    -2.7504423366    -1.7680010641
   31      C       0.9607542646    -3.2563489826     1.0414535186
   32      C      -1.3859091764    -3.0926516113     1.0612467409
   33      C       1.3859091756     3.0926516122    -1.0612467429
   34      C      -0.9607542662     3.2563489832    -1.0414535180
   35      C       1.3859011564     2.7504423353     1.7680010606
   36      C      -0.9607622803     2.9141397040     1.7877942904
   37      C       2.5438330411    -0.6241760608    -2.3980111416
   38      C       2.5438200660    -1.1779122310     2.1800555228
   39      C       2.6457583339     0.8159002261    -2.2238276598
   40      C       2.6457453526     0.2621640600     2.3542390114
   41      C      -2.6457453526    -0.2621640600    -2.3542390114
   42      C      -2.6457583354    -0.8159002245     2.2238276586
   43      C      -2.5438200640     1.1779122352    -2.1800555216
   44      C      -2.5438330392     0.6241760597     2.3980111458
   45      C       0.5636793454    -2.0216498375    -2.8646705685
   46      C       0.8869074638     2.5451572026    -2.3122953955
   47      C      -0.8868928111    -1.9204615557    -2.8524355392
   48      C      -0.5636647049     2.6463454916    -2.3000603651
   49      C       0.5636647054    -2.6463454917     2.3000603646
   50      C       0.8868928111     1.9204615557     2.8524355392
   51      C      -0.8869074609    -2.5451572031     2.3122953948
   52      C      -0.5636793454     2.0216498375     2.8646705685
   53      C       2.1177234943    -2.6491530908    -1.0527935131
   54      C      -2.4823681095    -2.3282622144    -1.0139934676
   55      C       2.1177194050    -2.8237657475     0.3908332757
   56      C      -2.4823722035    -2.5028748664     0.4296333175
   57      C       2.4823722058     2.5028748662    -0.4296333180
   58      C      -2.1177194096     2.8237657482    -0.3908332746
   59      C       2.4823681104     2.3282622145     1.0139934647
   60      C      -2.1177234973     2.6491530921     1.0527935094
 ----------------------------------------------------------------
 Molecular Point Group                 Ci    NOp =  2
 Largest Abelian Subgroup              Ci    NOp =  2
 Nuclear Repulsion Energy =  8323.4948408007 hartrees
 There are      180 alpha and      180 beta electrons
 Requested basis set is 3-21G(d)
 There are 180 shells and 540 basis functions

 Total QAlloc Memory Limit  70000 MB
 Mega-Array Size      5866 MB
 MEM_STATIC part      6000 MB
 A cutoff of  1.0D-11 yielded   8790 shell pairs
 There are     99510 function pairs
 
 -------------------------------------------------------
 OpenMP Integral Computing Module                       
 Release: version 1.0, May 2013, Q-Chem Inc. Pittsburgh 
 -------------------------------------------------------
 Integral Job Info:
 Integral job number is                      11
 Integral operator is                         1
 short-range coefficients                     0
 long-range coefficients              100000000
 Omega coefficients                           0
 if combine SR and LR in K                    0
 Integral screening is                        0
 Integral computing path is                   2
 max size of driver memory is            800000
 size of driver memory is                 45569
 size of scratch memory is               800000
 max col of scratch BK array                289
 max len of scratch array in speh3           22
 max len of scratch index in speh4            8
 max int batch size is                      520
 min int batch size is                       52
 fixed nKL is                               164
 max L of basis functions is                  1
 order of int derivative is                   0
 number of shells is                        180
 number of basis is                         540
 number of cartesian basis is               540
 number of contracted shell pairs          8790
 number of primitive shell pairs          19800
 maxK2 (contraction) of shell pair            9
 max number of K2 of shell pair               1
 max number of CS2 of shell pair           3000
 max number of PS2 of shell pair           9000
 mem total for path MDJ                  388362
 -------------------------------------------------------
 Smallest overlap matrix eigenvalue = 1.18E-03
 Guess from superposition of atomic densities
 Warning:  Energy on first SCF cycle will be non-variational
 A restricted hybrid HF-DFT SCF calculation will be
 performed using Pulay DIIS extrapolation
 Exchange:     0.2000 Hartree-Fock + 0.0800 Slater + 0.7200 B88
 Correlation:  0.1900 VWN1RPA + 0.8100 LYP
 Using SG-1 standard quadrature grid
 SCF converges when DIIS error is below 1.0E-08
 using 12 threads for integral computing 
 -------------------------------------------------------
 OpenMP BLAS3 based DFT computing Module                
 Release: version 1.0, May 2013, Q-Chem Inc. Pittsburgh 
 -------------------------------------------------------
 ---------------------------------------
  Cycle       Energy         DIIS Error
 ---------------------------------------
    1   -2296.3445305395      4.89E-02
    2   -2273.3745062536      1.98E-03
    3   -2273.4907904337      8.82E-04
    4   -2273.5192996890      2.06E-04
    5   -2273.5209821381      2.13E-05
    6   -2273.5209998635      5.15E-06
    7   -2273.5210007073      2.71E-06
    8   -2273.5210010172      7.88E-07
    9   -2273.5210010412      1.48E-07
   10   -2273.5210010424      3.92E-08
   11   -2273.5210010328      6.12E-09 Convergence criterion met
 ---------------------------------------
 SCF time:  CPU 288.98 s  wall 54.53 s
 SCF   energy in the final basis set = -2273.5210010328
 Total energy in the final basis set = -2273.5210010328
 
 --------------------------------------------------------------
             Orbital Energies (a.u.) and Symmetries
 --------------------------------------------------------------
 
 Alpha MOs, Restricted
 -- Occupied --                  
-10.190 -10.190 -10.190 -10.190 -10.190 -10.190 -10.190 -10.190
  1 Ag    2 Ag    3 Ag    1 Au    2 Au    3 Au    4 Au    5 Au                 
-10.190 -10.190 -10.190 -10.190 -10.190 -10.190 -10.190 -10.190
  6 Au    7 Au    8 Au    9 Au    4 Ag    5 Ag    6 Ag    7 Ag                 
-10.189 -10.189 -10.189 -10.189 -10.189 -10.189 -10.189 -10.189
  8 Ag    9 Ag   10 Ag   11 Ag   12 Ag   13 Ag   14 Ag   15 Ag                 
-10.189 -10.189 -10.189 -10.189 -10.189 -10.189 -10.189 -10.189
 10 Au   11 Au   12 Au   13 Au   14 Au   15 Au   16 Au   17 Au                 
-10.189 -10.189 -10.189 -10.188 -10.188 -10.188 -10.188 -10.188
 18 Au   19 Au   20 Au   16 Ag   17 Ag   18 Ag   19 Ag   20 Ag                 
-10.188 -10.188 -10.188 -10.188 -10.187 -10.187 -10.187 -10.187
 21 Ag   22 Ag   23 Ag   24 Ag   21 Au   22 Au   23 Au   24 Au                 
-10.187 -10.187 -10.187 -10.187 -10.187 -10.187 -10.187 -10.187
 25 Au   26 Au   27 Au   25 Ag   26 Ag   27 Ag   28 Ag   29 Ag                 
-10.186 -10.186 -10.186 -10.186  -0.994  -0.974  -0.974  -0.974
 28 Au   29 Au   30 Au   30 Ag   31 Ag   31 Au   32 Au   33 Au                 
 -0.937  -0.937  -0.937  -0.937  -0.937  -0.898  -0.898  -0.898
 32 Ag   33 Ag   34 Ag   35 Ag   36 Ag   34 Au   35 Au   36 Au                 
 -0.865  -0.865  -0.865  -0.865  -0.815  -0.815  -0.815  -0.815
 37 Au   38 Au   39 Au   40 Au   37 Ag   38 Ag   39 Ag   40 Ag                 
 -0.815  -0.798  -0.797  -0.797  -0.797  -0.740  -0.740  -0.740
 41 Ag   42 Ag   43 Ag   44 Ag   45 Ag   41 Au   42 Au   43 Au                 
 -0.740  -0.740  -0.731  -0.731  -0.731  -0.689  -0.689  -0.689
 44 Au   45 Au   46 Au   47 Au   48 Au   49 Au   50 Au   51 Au                 
 -0.650  -0.650  -0.650  -0.650  -0.650  -0.646  -0.646  -0.646
 46 Ag   47 Ag   48 Ag   49 Ag   50 Ag   51 Ag   52 Ag   53 Ag                 
 -0.626  -0.581  -0.581  -0.581  -0.581  -0.556  -0.556  -0.556
 54 Ag   55 Ag   56 Ag   57 Ag   58 Ag   52 Au   53 Au   54 Au                 
 -0.556  -0.556  -0.543  -0.543  -0.542  -0.516  -0.516  -0.516
 55 Au   56 Au   57 Au   58 Au   59 Au   60 Au   61 Au   62 Au                 
 -0.498  -0.490  -0.490  -0.490  -0.490  -0.475  -0.475  -0.475
 59 Ag   63 Au   64 Au   65 Au   66 Au   67 Au   68 Au   69 Au                 
 -0.473  -0.473  -0.473  -0.473  -0.473  -0.457  -0.457  -0.457
 60 Ag   61 Ag   62 Ag   63 Ag   64 Ag   65 Ag   66 Ag   67 Ag                 
 -0.457  -0.446  -0.446  -0.446  -0.430  -0.430  -0.430  -0.430
 68 Ag   69 Ag   70 Ag   71 Ag   72 Ag   73 Ag   74 Ag   75 Ag                 
 -0.430  -0.429  -0.429  -0.429  -0.429  -0.384  -0.384  -0.384
 76 Ag   70 Au   71 Au   72 Au   73 Au   77 Ag   78 Ag   79 Ag                 
 -0.384  -0.384  -0.376  -0.376  -0.376  -0.372  -0.372  -0.372
 80 Ag   81 Ag   74 Au   75 Au   76 Au   77 Au   78 Au   79 Au                 
 -0.372  -0.372  -0.356  -0.356  -0.356  -0.356  -0.288  -0.288
 80 Au   81 Au   82 Au   83 Au   84 Au   85 Au   82 Ag   83 Ag                 
 -0.288  -0.288  -0.288  -0.287  -0.287  -0.287  -0.287  -0.238
 84 Ag   85 Ag   86 Ag   87 Ag   88 Ag   89 Ag   90 Ag   86 Au                 
 -0.238  -0.238  -0.238  -0.238
 87 Au   88 Au   89 Au   90 Au                                                 
 -- Virtual --                   
 -0.133  -0.133  -0.133  -0.091  -0.091  -0.091  -0.043  -0.043
 91 Au   92 Au   93 Au   91 Ag   92 Ag   93 Ag   94 Au   95 Au                 
 -0.043  -0.041  -0.041  -0.041  -0.041  -0.041   0.017   0.017
 96 Au   94 Ag   95 Ag   96 Ag   97 Ag   98 Ag   97 Au   98 Au                 
  0.017   0.017   0.017   0.038   0.038   0.038   0.038   0.062
 99 Au  100 Au  101 Au   99 Ag  100 Ag  101 Ag  102 Ag  102 Au                 
  0.062   0.062   0.062   0.082   0.082   0.082   0.118   0.118
103 Au  104 Au  105 Au  103 Ag  104 Ag  105 Ag  106 Au  107 Au                 
  0.118   0.150   0.151   0.151   0.151   0.151   0.171   0.171
108 Au  106 Ag  107 Ag  108 Ag  109 Ag  110 Ag  111 Ag  112 Ag                 
  0.171   0.189   0.189   0.189   0.197   0.197   0.197   0.197
113 Ag  109 Au  110 Au  111 Au  112 Au  113 Au  114 Au  115 Au                 
  0.230   0.230   0.231   0.231   0.231   0.263   0.263   0.263
114 Ag  115 Ag  116 Ag  117 Ag  118 Ag  119 Ag  120 Ag  121 Ag                 
  0.263   0.278   0.278   0.278   0.278   0.278   0.318   0.318
122 Ag  116 Au  117 Au  118 Au  119 Au  120 Au  121 Au  122 Au                 
  0.318   0.344   0.344   0.344   0.353   0.353   0.353   0.372
123 Au  124 Au  125 Au  126 Au  123 Ag  124 Ag  125 Ag  127 Au                 
  0.372   0.372   0.372   0.372   0.429   0.429   0.429   0.463
128 Au  129 Au  130 Au  131 Au  126 Ag  127 Ag  128 Ag  129 Ag                 
  0.463   0.463   0.463   0.464   0.464   0.464   0.464   0.464
130 Ag  131 Ag  132 Ag  133 Ag  134 Ag  135 Ag  136 Ag  137 Ag                 
  0.471   0.471   0.471   0.471   0.496   0.496   0.496   0.531
132 Au  133 Au  134 Au  135 Au  138 Ag  139 Ag  140 Ag  141 Ag                 
  0.531   0.532   0.532   0.537   0.537   0.537   0.537   0.537
142 Ag  143 Ag  144 Ag  136 Au  137 Au  138 Au  139 Au  140 Au                 
  0.559   0.559   0.559   0.559   0.559   0.604   0.631   0.631
141 Au  142 Au  143 Au  144 Au  145 Au  145 Ag  146 Au  147 Au                 
  0.631   0.633   0.633   0.633   0.647   0.659   0.659   0.659
148 Au  146 Ag  147 Ag  148 Ag  149 Ag  149 Au  150 Au  151 Au                 
  0.659   0.664   0.664   0.664   0.664   0.664   0.678   0.678
152 Au  150 Ag  151 Ag  152 Ag  153 Ag  154 Ag  153 Au  154 Au                 
  0.678   0.680   0.680   0.680   0.680   0.687   0.687   0.687
155 Au  156 Au  157 Au  158 Au  159 Au  160 Au  161 Au  162 Au                 
  0.687   0.692   0.692   0.693   0.693   0.699   0.699   0.699
163 Au  155 Ag  156 Ag  157 Ag  158 Ag  159 Ag  160 Ag  161 Ag                 
  0.706   0.706   0.706   0.706   0.706   0.733   0.733   0.733
162 Ag  163 Ag  164 Ag  165 Ag  166 Ag  164 Au  165 Au  166 Au                 
  0.770   0.770   0.771   0.771   0.787   0.787   0.787   0.787
167 Au  168 Au  169 Au  170 Au  167 Ag  168 Ag  169 Ag  170 Ag                 
  0.788   0.794   0.795   0.795   0.795   0.796   0.796   0.796
171 Ag  172 Ag  173 Ag  174 Ag  175 Ag  171 Au  172 Au  173 Au                 
  0.798   0.798   0.798   0.798   0.798   0.802   0.802   0.802
174 Au  175 Au  176 Au  177 Au  178 Au  176 Ag  177 Ag  178 Ag                 
  0.802   0.802   0.820   0.820   0.820   0.820   0.820   0.820
179 Ag  180 Ag  179 Au  181 Ag  182 Ag  183 Ag  180 Au  181 Au                 
  0.824   0.824   0.824   0.825   0.825   0.825   0.825   0.825
184 Ag  185 Ag  186 Ag  182 Au  183 Au  184 Au  185 Au  186 Au                 
  0.831   0.831   0.831   0.831   0.833   0.833   0.833   0.833
187 Ag  188 Ag  189 Ag  190 Ag  187 Au  188 Au  189 Au  190 Au                 
  0.928   0.928   0.928   0.928   0.928   0.933   0.933   0.933
191 Ag  192 Ag  193 Ag  194 Ag  195 Ag  191 Au  192 Au  193 Au                 
  0.947   0.947   0.947   1.008   1.060   1.060   1.060   1.060
194 Au  195 Au  196 Au  196 Ag  197 Au  198 Au  199 Au  200 Au                 
  1.099   1.099   1.099   1.099   1.099   1.101   1.101   1.101
201 Au  202 Au  203 Au  204 Au  205 Au  197 Ag  198 Ag  199 Ag                 
  1.101   1.101   1.121   1.121   1.121   1.121   1.121   1.122
200 Ag  201 Ag  202 Ag  203 Ag  204 Ag  205 Ag  206 Ag  207 Ag                 
  1.122   1.122   1.122   1.182   1.182   1.182   1.185   1.185
208 Ag  209 Ag  210 Ag  206 Au  207 Au  208 Au  211 Ag  212 Ag                 
  1.185   1.201   1.201   1.201   1.204   1.204   1.204   1.213
213 Ag  214 Ag  215 Ag  216 Ag  209 Au  210 Au  211 Au  212 Au                 
  1.213   1.213   1.214   1.214   1.251   1.251   1.251   1.251
213 Au  214 Au  215 Au  216 Au  217 Au  218 Au  219 Au  220 Au                 
  1.251   1.284   1.284   1.284   1.284   1.291   1.291   1.291
221 Au  217 Ag  218 Ag  219 Ag  220 Ag  222 Au  223 Au  224 Au                 
  1.291   1.308   1.308   1.308   1.308   1.308   1.309   1.309
225 Au  226 Au  227 Au  228 Au  221 Ag  222 Ag  223 Ag  224 Ag                 
  1.309   1.333   1.333   1.333   1.353   1.353   1.353   1.384
225 Ag  226 Ag  227 Ag  228 Ag  229 Ag  230 Ag  231 Ag  232 Ag                 
  1.384   1.384   1.384   1.384   1.400   1.400   1.400   1.400
233 Ag  234 Ag  235 Ag  236 Ag  237 Ag  238 Ag  239 Ag  240 Ag                 
  1.402   1.402   1.402   1.402   1.402   1.412   1.412   1.412
229 Au  230 Au  231 Au  232 Au  233 Au  234 Au  235 Au  236 Au                 
  1.412   1.430   1.430   1.430   1.430   1.430   1.483   1.483
237 Au  238 Au  239 Au  240 Au  241 Au  242 Au  243 Au  244 Au                 
  1.483   1.522   1.522   1.522   1.522   1.524   1.524   1.524
245 Au  246 Au  247 Au  248 Au  249 Au  241 Ag  242 Ag  243 Ag                 
  1.530   1.530   1.530   1.660   1.674   1.674   1.674   1.674
244 Ag  245 Ag  246 Ag  250 Au  247 Ag  248 Ag  249 Ag  250 Ag                 
  1.674   1.678   1.678   1.678   1.678   1.909   1.909   1.909
251 Ag  252 Ag  253 Ag  254 Ag  255 Ag  251 Au  252 Au  253 Au                 
  1.909   1.909   1.955   1.955   1.955   1.961   1.961   1.961
254 Au  255 Au  256 Au  257 Au  258 Au  259 Au  260 Au  261 Au                 
  2.171   2.171   2.171   2.171   2.171   2.243   2.243   2.243
256 Ag  257 Ag  258 Ag  259 Ag  260 Ag  261 Ag  262 Ag  263 Ag                 
  2.518   2.518   2.518   2.519   2.562   2.562   2.562   2.562
264 Ag  265 Ag  266 Ag  267 Ag  262 Au  263 Au  264 Au  265 Au                 
  2.562   3.002   3.003   3.004   3.004   3.220   3.220   3.220
266 Au  267 Au  268 Au  269 Au  270 Au  268 Ag  269 Ag  270 Ag                 
 
 Beta MOs, Restricted
 -- Occupied --                  
-10.190 -10.190 -10.190 -10.190 -10.190 -10.190 -10.190 -10.190
  1 Ag    2 Ag    3 Ag    1 Au    2 Au    3 Au    4 Au    5 Au                 
-10.190 -10.190 -10.190 -10.190 -10.190 -10.190 -10.190 -10.190
  6 Au    7 Au    8 Au    9 Au    4 Ag    5 Ag    6 Ag    7 Ag                 
-10.189 -10.189 -10.189 -10.189 -10.189 -10.189 -10.189 -10.189
  8 Ag    9 Ag   10 Ag   11 Ag   12 Ag   13 Ag   14 Ag   15 Ag                 
-10.189 -10.189 -10.189 -10.189 -10.189 -10.189 -10.189 -10.189
 10 Au   11 Au   12 Au   13 Au   14 Au   15 Au   16 Au   17 Au                 
-10.189 -10.189 -10.189 -10.188 -10.188 -10.188 -10.188 -10.188
 18 Au   19 Au   20 Au   16 Ag   17 Ag   18 Ag   19 Ag   20 Ag                 
-10.188 -10.188 -10.188 -10.188 -10.187 -10.187 -10.187 -10.187
 21 Ag   22 Ag   23 Ag   24 Ag   21 Au   22 Au   23 Au   24 Au                 
-10.187 -10.187 -10.187 -10.187 -10.187 -10.187 -10.187 -10.187
 25 Au   26 Au   27 Au   25 Ag   26 Ag   27 Ag   28 Ag   29 Ag                 
-10.186 -10.186 -10.186 -10.186  -0.994  -0.974  -0.974  -0.974
 28 Au   29 Au   30 Au   30 Ag   31 Ag   31 Au   32 Au   33 Au                 
 -0.937  -0.937  -0.937  -0.937  -0.937  -0.898  -0.898  -0.898
 32 Ag   33 Ag   34 Ag   35 Ag   36 Ag   34 Au   35 Au   36 Au                 
 -0.865  -0.865  -0.865  -0.865  -0.815  -0.815  -0.815  -0.815
 37 Au   38 Au   39 Au   40 Au   37 Ag   38 Ag   39 Ag   40 Ag                 
 -0.815  -0.798  -0.797  -0.797  -0.797  -0.740  -0.740  -0.740
 41 Ag   42 Ag   43 Ag   44 Ag   45 Ag   41 Au   42 Au   43 Au                 
 -0.740  -0.740  -0.731  -0.731  -0.731  -0.689  -0.689  -0.689
 44 Au   45 Au   46 Au   47 Au   48 Au   49 Au   50 Au   51 Au                 
 -0.650  -0.650  -0.650  -0.650  -0.650  -0.646  -0.646  -0.646
 46 Ag   47 Ag   48 Ag   49 Ag   50 Ag   51 Ag   52 Ag   53 Ag                 
 -0.626  -0.581  -0.581  -0.581  -0.581  -0.556  -0.556  -0.556
 54 Ag   55 Ag   56 Ag   57 Ag   58 Ag   52 Au   53 Au   54 Au                 
 -0.556  -0.556  -0.543  -0.543  -0.542  -0.516  -0.516  -0.516
 55 Au   56 Au   57 Au   58 Au   59 Au   60 Au   61 Au   62 Au                 
 -0.498  -0.490  -0.490  -0.490  -0.490  -0.475  -0.475  -0.475
 59 Ag   63 Au   64 Au   65 Au   66 Au   67 Au   68 Au   69 Au                 
 -0.473  -0.473  -0.473  -0.473  -0.473  -0.457  -0.457  -0.457
 60 Ag   61 Ag   62 Ag   63 Ag   64 Ag   65 Ag   66 Ag   67 Ag                 
 -0.457  -0.446  -0.446  -0.446  -0.430  -0.430  -0.430  -0.430
 68 Ag   69 Ag   70 Ag   71 Ag   72 Ag   73 Ag   74 Ag   75 Ag                 
 -0.430  -0.429  -0.429  -0.429  -0.429  -0.384  -0.384  -0.384
 76 Ag   70 Au   71 Au   72 Au   73 Au   77 Ag   78 Ag   79 Ag                 
 -0.384  -0.384  -0.376  -0.376  -0.376  -0.372  -0.372  -0.372
 80 Ag   81 Ag   74 Au   75 Au   76 Au   77 Au   78 Au   79 Au                 
 -0.372  -0.372  -0.356  -0.356  -0.356  -0.356  -0.288  -0.288
 80 Au   81 Au   82 Au   83 Au   84 Au   85 Au   82 Ag   83 Ag                 
 -0.288  -0.288  -0.288  -0.287  -0.287  -0.287  -0.287  -0.238
 84 Ag   85 Ag   86 Ag   87 Ag   88 Ag   89 Ag   90 Ag   86 Au                 
 -0.238  -0.238  -0.238  -0.238
 87 Au   88 Au   89 Au   90 Au                                                 
 -- Virtual --                   
 -0.133  -0.133  -0.133  -0.091  -0.091  -0.091  -0.043  -0.043
 91 Au   92 Au   93 Au   91 Ag   92 Ag   93 Ag   94 Au   95 Au                 
 -0.043  -0.041  -0.041  -0.041  -0.041  -0.041   0.017   0.017
 96 Au   94 Ag   95 Ag   96 Ag   97 Ag   98 Ag   97 Au   98 Au                 
  0.017   0.017   0.017   0.038   0.038   0.038   0.038   0.062
 99 Au  100 Au  101 Au   99 Ag  100 Ag  101 Ag  102 Ag  102 Au                 
  0.062   0.062   0.062   0.082   0.082   0.082   0.118   0.118
103 Au  104 Au  105 Au  103 Ag  104 Ag  105 Ag  106 Au  107 Au                 
  0.118   0.150   0.151   0.151   0.151   0.151   0.171   0.171
108 Au  106 Ag  107 Ag  108 Ag  109 Ag  110 Ag  111 Ag  112 Ag                 
  0.171   0.189   0.189   0.189   0.197   0.197   0.197   0.197
113 Ag  109 Au  110 Au  111 Au  112 Au  113 Au  114 Au  115 Au                 
  0.230   0.230   0.231   0.231   0.231   0.263   0.263   0.263
114 Ag  115 Ag  116 Ag  117 Ag  118 Ag  119 Ag  120 Ag  121 Ag                 
  0.263   0.278   0.278   0.278   0.278   0.278   0.318   0.318
122 Ag  116 Au  117 Au  118 Au  119 Au  120 Au  121 Au  122 Au                 
  0.318   0.344   0.344   0.344   0.353   0.353   0.353   0.372
123 Au  124 Au  125 Au  126 Au  123 Ag  124 Ag  125 Ag  127 Au                 
  0.372   0.372   0.372   0.372   0.429   0.429   0.429   0.463
128 Au  129 Au  130 Au  131 Au  126 Ag  127 Ag  128 Ag  129 Ag                 
  0.463   0.463   0.463   0.464   0.464   0.464   0.464   0.464
130 Ag  131 Ag  132 Ag  133 Ag  134 Ag  135 Ag  136 Ag  137 Ag                 
  0.471   0.471   0.471   0.471   0.496   0.496   0.496   0.531
132 Au  133 Au  134 Au  135 Au  138 Ag  139 Ag  140 Ag  141 Ag                 
  0.531   0.532   0.532   0.537   0.537   0.537   0.537   0.537
142 Ag  143 Ag  144 Ag  136 Au  137 Au  138 Au  139 Au  140 Au                 
  0.559   0.559   0.559   0.559   0.559   0.604   0.631   0.631
141 Au  142 Au  143 Au  144 Au  145 Au  145 Ag  146 Au  147 Au                 
  0.631   0.633   0.633   0.633   0.647   0.659   0.659   0.659
148 Au  146 Ag  147 Ag  148 Ag  149 Ag  149 Au  150 Au  151 Au                 
  0.659   0.664   0.664   0.664   0.664   0.664   0.678   0.678
152 Au  150 Ag  151 Ag  152 Ag  153 Ag  154 Ag  153 Au  154 Au                 
  0.678   0.680   0.680   0.680   0.680   0.687   0.687   0.687
155 Au  156 Au  157 Au  158 Au  159 Au  160 Au  161 Au  162 Au                 
  0.687   0.692   0.692   0.693   0.693   0.699   0.699   0.699
163 Au  155 Ag  156 Ag  157 Ag  158 Ag  159 Ag  160 Ag  161 Ag                 
  0.706   0.706   0.706   0.706   0.706   0.733   0.733   0.733
162 Ag  163 Ag  164 Ag  165 Ag  166 Ag  164 Au  165 Au  166 Au                 
  0.770   0.770   0.771   0.771   0.787   0.787   0.787   0.787
167 Au  168 Au  169 Au  170 Au  167 Ag  168 Ag  169 Ag  170 Ag                 
  0.788   0.794   0.795   0.795   0.795   0.796   0.796   0.796
171 Ag  172 Ag  173 Ag  174 Ag  175 Ag  171 Au  172 Au  173 Au                 
  0.798   0.798   0.798   0.798   0.798   0.802   0.802   0.802
174 Au  175 Au  176 Au  177 Au  178 Au  176 Ag  177 Ag  178 Ag                 
  0.802   0.802   0.820   0.820   0.820   0.820   0.820   0.820
179 Ag  180 Ag  179 Au  181 Ag  182 Ag  183 Ag  180 Au  181 Au                 
  0.824   0.824   0.824   0.825   0.825   0.825   0.825   0.825
184 Ag  185 Ag  186 Ag  182 Au  183 Au  184 Au  185 Au  186 Au                 
  0.831   0.831   0.831   0.831   0.833   0.833   0.833   0.833
187 Ag  188 Ag  189 Ag  190 Ag  187 Au  188 Au  189 Au  190 Au                 
  0.928   0.928   0.928   0.928   0.928   0.933   0.933   0.933
191 Ag  192 Ag  193 Ag  194 Ag  195 Ag  191 Au  192 Au  193 Au                 
  0.947   0.947   0.947   1.008   1.060   1.060   1.060   1.060
194 Au  195 Au  196 Au  196 Ag  197 Au  198 Au  199 Au  200 Au                 
  1.099   1.099   1.099   1.099   1.099   1.101   1.101   1.101
201 Au  202 Au  203 Au  204 Au  205 Au  197 Ag  198 Ag  199 Ag                 
  1.101   1.101   1.121   1.121   1.121   1.121   1.121   1.122
200 Ag  201 Ag  202 Ag  203 Ag  204 Ag  205 Ag  206 Ag  207 Ag                 
  1.122   1.122   1.122   1.182   1.182   1.182   1.185   1.185
208 Ag  209 Ag  210 Ag  206 Au  207 Au  208 Au  211 Ag  212 Ag                 
  1.185   1.201   1.201   1.201   1.204   1.204   1.204   1.213
213 Ag  214 Ag  215 Ag  216 Ag  209 Au  210 Au  211 Au  212 Au                 
  1.213   1.213   1.214   1.214   1.251   1.251   1.251   1.251
213 Au  214 Au  215 Au  216 Au  217 Au  218 Au  219 Au  220 Au                 
  1.251   1.284   1.284   1.284   1.284   1.291   1.291   1.291
221 Au  217 Ag  218 Ag  219 Ag  220 Ag  222 Au  223 Au  224 Au                 
  1.291   1.308   1.308   1.308   1.308   1.308   1.309   1.309
225 Au  226 Au  227 Au  228 Au  221 Ag  222 Ag  223 Ag  224 Ag                 
  1.309   1.333   1.333   1.333   1.353   1.353   1.353   1.384
225 Ag  226 Ag  227 Ag  228 Ag  229 Ag  230 Ag  231 Ag  232 Ag                 
  1.384   1.384   1.384   1.384   1.400   1.400   1.400   1.400
233 Ag  234 Ag  235 Ag  236 Ag  237 Ag  238 Ag  239 Ag  240 Ag                 
  1.402   1.402   1.402   1.402   1.402   1.412   1.412   1.412
229 Au  230 Au  231 Au  232 Au  233 Au  234 Au  235 Au  236 Au                 
  1.412   1.430   1.430   1.430   1.430   1.430   1.483   1.483
237 Au  238 Au  239 Au  240 Au  241 Au  242 Au  243 Au  244 Au                 
  1.483   1.522   1.522   1.522   1.522   1.524   1.524   1.524
245 Au  246 Au  247 Au  248 Au  249 Au  241 Ag  242 Ag  243 Ag                 
  1.530   1.530   1.530   1.660   1.674   1.674   1.674   1.674
244 Ag  245 Ag  246 Ag  250 Au  247 Ag  248 Ag  249 Ag  250 Ag                 
  1.674   1.678   1.678   1.678   1.678   1.909   1.909   1.909
251 Ag  252 Ag  253 Ag  254 Ag  255 Ag  251 Au  252 Au  253 Au                 
  1.909   1.909   1.955   1.955   1.955   1.961   1.961   1.961
254 Au  255 Au  256 Au  257 Au  258 Au  259 Au  260 Au  261 Au                 
  2.171   2.171   2.171   2.171   2.171   2.243   2.243   2.243
256 Ag  257 Ag  258 Ag  259 Ag  260 Ag  261 Ag  262 Ag  263 Ag                 
  2.518   2.518   2.518   2.519   2.562   2.562   2.562   2.562
264 Ag  265 Ag  266 Ag  267 Ag  262 Au  263 Au  264 Au  265 Au                 
  2.562   3.002   3.003   3.004   3.004   3.220   3.220   3.220
266 Au  267 Au  268 Au  269 Au  270 Au  268 Ag  269 Ag  270 Ag                 
 --------------------------------------------------------------
 
          Ground-State Mulliken Net Atomic Charges

     Atom                 Charge (a.u.)
  ----------------------------------------
      1 C                     0.000008
      2 C                    -0.000060
      3 C                    -0.000059
      4 C                     0.000008
      5 C                     0.000094
      6 C                    -0.000095
      7 C                    -0.000095
      8 C                     0.000094
      9 C                    -0.000105
     10 C                     0.000179
     11 C                     0.000179
     12 C                    -0.000105
     13 C                     0.000076
     14 C                    -0.000469
     15 C                    -0.000154
     16 C                    -0.000244
     17 C                    -0.000244
     18 C                    -0.000154
     19 C                    -0.000469
     20 C                     0.000076
     21 C                    -0.000342
     22 C                    -0.000258
     23 C                     0.000110
     24 C                     0.000094
     25 C                     0.000094
     26 C                     0.000110
     27 C                    -0.000258
     28 C                    -0.000342
     29 C                     0.000015
     30 C                     0.000028
     31 C                     0.000027
     32 C                    -0.000064
     33 C                    -0.000064
     34 C                     0.000027
     35 C                     0.000028
     36 C                     0.000015
     37 C                     0.000013
     38 C                     0.000255
     39 C                     0.000388
     40 C                     0.000127
     41 C                     0.000127
     42 C                     0.000388
     43 C                     0.000255
     44 C                     0.000013
     45 C                     0.000226
     46 C                    -0.000196
     47 C                    -0.000088
     48 C                     0.000029
     49 C                     0.000029
     50 C                    -0.000088
     51 C                    -0.000196
     52 C                     0.000226
     53 C                    -0.000262
     54 C                     0.000262
     55 C                     0.000450
     56 C                    -0.000044
     57 C                    -0.000044
     58 C                     0.000450
     59 C                     0.000262
     60 C                    -0.000262
  ----------------------------------------
  Sum of atomic charges =     0.000000

 -----------------------------------------------------------------
                    Cartesian Multipole Moments
 -----------------------------------------------------------------
    Charge (ESU x 10^10)
                 0.0000
    Dipole Moment (Debye)
         X       0.0000      Y       0.0000      Z       0.0000
       Tot       0.0000
    Quadrupole Moments (Debye-Ang)
        XX    -339.0637     XY      -0.0016     YY    -339.0560
        XZ       0.0108     YZ      -0.0007     ZZ    -339.0549
    Octopole Moments (Debye-Ang^2)
       XXX       0.0000    XXY       0.0000    XYY       0.0000
       YYY       0.0000    XXZ       0.0000    XYZ       0.0000
       YYZ       0.0000    XZZ       0.0000    YZZ       0.0000
       ZZZ       0.0000
    Hexadecapole Moments (Debye-Ang^3)
      XXXX   -8909.1441   XXXY      -0.0114   XXYY   -2969.7526
      XYYY      -0.0142   YYYY   -8908.9448   XXXZ       0.0087
      XXYZ      -0.0057   XYYZ       0.0897   YYYZ       0.0208
      XXZZ   -2969.7310   XYZZ      -0.0064   YYZZ   -2969.7727
      XZZZ       0.0617   YZZZ      -0.0132   ZZZZ   -8908.9556
 -----------------------------------------------------------------
 Calculating MO derivatives via CPSCF
   1         3         180      0.295362    0.019695
   2         3         180      0.039998    0.002022
   3         3         180      0.003732    0.000123
   4        60         123      0.000167    0.000006
   5       183           0      0.000000    0.000000    Roots Converged
 Calculating analytic Hessian of the SCF energy
 Polarizability Matrix (a.u.)
            1           2           3
    1-438.8175769   0.0011101  -0.0072137
    2   0.0011101-438.8230521   0.0004741
    3  -0.0072137   0.0004741-438.8224714
 
 Direct stationary perturbation theory relativistic correction:
 
 rels  =       0.520339846468
 relv  =      -4.595544642899
 rel2e =       3.321381751243
 E_rel =      -0.753823045188
 
 Hessian of the SCF Energy
            1           2           3           4           5           6
    1   0.1929389   0.1269626   0.0149547  -0.0307809  -0.0215061  -0.0019930
    2   0.1269626   0.6495623   0.0168395  -0.0155932  -0.3039050  -0.0214194
    3   0.0149547   0.0168395   0.5135340  -0.0014624  -0.0213530  -0.1320676
    4  -0.0307809  -0.0155932  -0.0014624   0.1651562  -0.0604864  -0.0071964
    5  -0.0215061  -0.3039050  -0.0213530  -0.0604864   0.6764895   0.0207716
    6  -0.0019930  -0.0214194  -0.1320676  -0.0071964   0.0207716   0.5149571
    7  -0.0003386   0.0001775   0.0000207   0.0002398   0.0002096   0.0000251
    8  -0.0001130   0.0001418  -0.0001915   0.0002096   0.0003751  -0.0000916
    9  -0.0000138  -0.0001918   0.0017029   0.0000251  -0.0000916   0.0011287
   10   0.0001845  -0.0001850  -0.0000225  -0.0003386  -0.0001130  -0.0000138
   11  -0.0001850   0.0004295  -0.0000864   0.0001775   0.0001418  -0.0001918
   12  -0.0000225  -0.0000864   0.0011298   0.0000207  -0.0001915   0.0017029
   13   0.0004952   0.0014530  -0.0004845   0.0003295  -0.0011841  -0.0006572
   14  -0.0000233   0.0014445  -0.0007790   0.0002908   0.0012074   0.0013402
   15  -0.0006073  -0.0003131  -0.0008144  -0.0004853   0.0008595  -0.0004135
   16  -0.0000891  -0.0009192  -0.0009418  -0.0000254   0.0011282  -0.0008680
   17   0.0004799  -0.0002414   0.0012454  -0.0005696  -0.0000322  -0.0011536
   18   0.0003827  -0.0000814   0.0001571   0.0002577  -0.0000010  -0.0001275
   19   0.0004908   0.0013057   0.0008231   0.0003320  -0.0013131   0.0003479
   20  -0.0001688   0.0010652   0.0012344   0.0001694   0.0016227  -0.0008367
   21   0.0005875   0.0007535  -0.0004408   0.0005452  -0.0003475  -0.0008303
   22  -0.0000858  -0.0011270   0.0006960  -0.0000174   0.0008949   0.0011199
   23   0.0005599   0.0000485  -0.0012743  -0.0004938  -0.0003030   0.0011088
   24  -0.0002625   0.0000529  -0.0001329  -0.0003898  -0.0000433   0.0001460
   25  -0.0007285  -0.0006296   0.0010187  -0.0000322  -0.0007682  -0.0013535
   26  -0.0005242   0.0006540   0.0000025   0.0003095  -0.0000897  -0.0004330
   27   0.0004498  -0.0014516   0.0012026   0.0001398   0.0010277  -0.0000644
   28  -0.0007222  -0.0003696  -0.0011367  -0.0000293  -0.0010621   0.0011279
   29  -0.0004059   0.0003455  -0.0002072   0.0003315   0.0000501   0.0004632
   30  -0.0005512   0.0012400   0.0015040  -0.0000545  -0.0009946  -0.0002015
   31   0.0000509   0.0010451  -0.0010599  -0.0005685   0.0005159   0.0011287
   32  -0.0003242  -0.0000416   0.0006271   0.0005403   0.0002141  -0.0003714
   33  -0.0000839  -0.0010167  -0.0001826   0.0007603   0.0011493   0.0014782
   34   0.0000521   0.0007636   0.0012732  -0.0005664   0.0007738  -0.0009783
   35  -0.0003351  -0.0001493  -0.0006095   0.0007042   0.0004615   0.0001252
   36   0.0000063   0.0010234  -0.0000880  -0.0006025  -0.0013928   0.0012268
   37  -0.0571968  -0.0311637  -0.0470846  -0.0056903  -0.0185877  -0.0038121
   38  -0.0311933  -0.1076646  -0.0333483  -0.0016817  -0.0243402  -0.0287212
   39  -0.0342100  -0.0174521  -0.1672074  -0.0001039  -0.0404345   0.0112508
   40  -0.0611951  -0.0415726   0.0383562  -0.0059663  -0.0189835  -0.0007075
   41  -0.0403644  -0.1237901   0.0442523  -0.0015669  -0.0385563   0.0166241
   42   0.0264192   0.0283686  -0.1525897  -0.0002694   0.0283250   0.0253826
   43  -0.0035871   0.0146877   0.0033908  -0.0489104   0.0320249  -0.0332903
   44  -0.0029563  -0.0407361   0.0162881   0.0296489  -0.1328119   0.0486688
   45   0.0046752   0.0276834   0.0251594  -0.0233577   0.0308203  -0.1515899
   46  -0.0038839   0.0153909   0.0003027  -0.0510021   0.0224176   0.0392693
   47  -0.0020468  -0.0265933  -0.0289660   0.0240528  -0.1164610  -0.0405579
   48  -0.0054750  -0.0403224   0.0113438   0.0301984  -0.0226635  -0.1694596
   49   0.0001581  -0.0001135   0.0005479  -0.0000714   0.0000343   0.0006217
   50   0.0004763   0.0006333   0.0007932  -0.0000891  -0.0007544  -0.0004195
   51  -0.0001247  -0.0001666  -0.0020716  -0.0002075   0.0004676  -0.0006311
   52   0.0001622   0.0000197  -0.0005605  -0.0000674   0.0001827  -0.0005979
   53   0.0004323   0.0006275  -0.0001320  -0.0001353  -0.0007361   0.0003936
   54   0.0002377   0.0008303  -0.0020667   0.0001829  -0.0004934  -0.0006509
   55  -0.0000818  -0.0002829   0.0006358   0.0001089   0.0000682   0.0004980
   56   0.0000510  -0.0007184   0.0003049  -0.0003618   0.0006785  -0.0001994
   57  -0.0002566  -0.0004593  -0.0006577  -0.0001526   0.0008562  -0.0020685
   58  -0.0000821  -0.0001227  -0.0006859   0.0001158   0.0001853  -0.0004700
   59  -0.0000120  -0.0007475  -0.0003287  -0.0003890   0.0006742   0.0008730
   60   0.0002624   0.0004381  -0.0006255   0.0000672  -0.0001827  -0.0020679
   61   0.0025980  -0.0007425  -0.0020664  -0.0005106   0.0057624  -0.0028674
   62  -0.0009231  -0.0023996   0.0025770  -0.0000624   0.0002509  -0.0003224
   63  -0.0064479   0.0041634  -0.0021976   0.0015130   0.0027268  -0.0007543
   64  -0.0012428  -0.0046865  -0.0040304   0.0028950   0.0006507  -0.0022474
   65  -0.0000024   0.0014506   0.0012743   0.0019034  -0.0012724  -0.0019677
   66   0.0011516  -0.0024835  -0.0012087  -0.0066042  -0.0029552  -0.0036398
   67   0.0005244   0.0010535   0.0009333   0.0000666  -0.0017127  -0.0003971
   68  -0.0001097  -0.0001582   0.0002274   0.0001438  -0.0008214   0.0019905
   69   0.0000386  -0.0008023  -0.0003454  -0.0004142   0.0008059  -0.0002354
   70   0.0002861   0.0016825  -0.0002713   0.0003595  -0.0013252   0.0006040
   71  -0.0001355  -0.0003715  -0.0019515  -0.0000006  -0.0001247  -0.0003063
   72  -0.0005601  -0.0007453  -0.0009044   0.0001634   0.0008221  -0.0002148
   73   0.0026204  -0.0012455   0.0018035  -0.0004934   0.0049336   0.0041645
   74  -0.0024421  -0.0008098  -0.0022678   0.0003115   0.0007547   0.0006867
   75   0.0059685  -0.0037725  -0.0037683  -0.0015153  -0.0023781  -0.0012291
   76  -0.0012377  -0.0055242   0.0027961   0.0029126   0.0000951   0.0022992
   77   0.0002599   0.0010158  -0.0007138   0.0002423  -0.0025217   0.0023113
   78  -0.0011322   0.0030334  -0.0007636   0.0068117   0.0031918  -0.0023520
   79   0.0005262   0.0012498  -0.0006551   0.0000711  -0.0017593  -0.0000223
   80  -0.0000933  -0.0002976  -0.0002209   0.0000438  -0.0001427  -0.0019687
   81  -0.0000631   0.0008225  -0.0002027   0.0004362  -0.0007850  -0.0009177
   82   0.0002905   0.0015743   0.0006571   0.0003660  -0.0011419  -0.0009089
   83  -0.0002678  -0.0010284   0.0019213   0.0000383  -0.0000093   0.0003624
   84   0.0005081   0.0007177  -0.0002502  -0.0001639  -0.0007783  -0.0003328
   85   0.0032535   0.0010116   0.0085625   0.0003690  -0.0044891   0.0018628
   86  -0.0042897  -0.0030721   0.0004868   0.0001286   0.0018725  -0.0008093
   87   0.0034056   0.0085698   0.0065492  -0.0007177  -0.0075289   0.0047308
   88  -0.0000162  -0.0007101  -0.0001658  -0.0001717   0.0003666   0.0007831
   89  -0.0000244   0.0000793   0.0006951   0.0000952  -0.0001714  -0.0001818
   90   0.0001409   0.0007643  -0.0007869   0.0001091  -0.0000864   0.0001496
   91   0.0032977   0.0030521  -0.0080812   0.0003779  -0.0039026  -0.0028797
   92  -0.0033182  -0.0004569  -0.0021545  -0.0000419   0.0001066  -0.0003232
   93  -0.0043485  -0.0103202   0.0039713   0.0007191   0.0063813   0.0065111
   94  -0.0000130  -0.0007333  -0.0000083  -0.0001683   0.0005442  -0.0006745
   95   0.0000178   0.0003697  -0.0004119   0.0001216  -0.0002148   0.0000900
   96  -0.0001480  -0.0004846  -0.0010730  -0.0000840  -0.0000034   0.0001964
   97   0.0009583   0.0039117   0.0029101   0.0033926  -0.0037139   0.0076890
   98  -0.0000835  -0.0004362  -0.0007380   0.0028074  -0.0003855  -0.0033614
   99   0.0002568   0.0063509   0.0064490   0.0028621  -0.0107139   0.0037095
  100  -0.0002487  -0.0005389   0.0006869   0.0000868   0.0007630  -0.0000669
  101  -0.0001136  -0.0001206  -0.0000018   0.0000204   0.0002647  -0.0004078
  102   0.0000901  -0.0000070   0.0001790   0.0000576  -0.0005081  -0.0010746
  103   0.0009641   0.0044710  -0.0018876   0.0034225  -0.0018074  -0.0083655
  104  -0.0000218   0.0012743  -0.0005495   0.0033581  -0.0034364   0.0015454
  105  -0.0002749  -0.0076298   0.0047701  -0.0021252   0.0089927   0.0068016
  106  -0.0002481  -0.0003625  -0.0007969   0.0000927   0.0007285   0.0002507
  107  -0.0000922  -0.0001038  -0.0000687   0.0000259  -0.0000243   0.0006641
  108  -0.0001139  -0.0000631   0.0001673  -0.0000512   0.0007660  -0.0007872
  109  -0.0057252   0.0126355  -0.0177278   0.0013031  -0.0004724   0.0028701
  110   0.0140763   0.0270387   0.0219725   0.0009638  -0.0257664   0.0168294
  111  -0.0070454   0.0039845  -0.0401674  -0.0042110   0.0049082  -0.0045897
  112  -0.0059356   0.0080760   0.0202688   0.0011863   0.0001353  -0.0029011
  113   0.0119293   0.0294164  -0.0048449  -0.0000169  -0.0194002  -0.0205115
  114   0.0100121   0.0127467  -0.0422812   0.0042959  -0.0087071  -0.0110087
  115   0.0006319  -0.0031687  -0.0002642  -0.0084527  -0.0025676  -0.0213524
  116  -0.0031098  -0.0190412  -0.0206426  -0.0067724   0.0313192  -0.0019337
  117  -0.0058898  -0.0077299  -0.0108418  -0.0090404   0.0143804  -0.0418724
  118   0.0006913  -0.0031101  -0.0006594  -0.0086343  -0.0076919   0.0200136
  119  -0.0044591  -0.0250901   0.0172022  -0.0087917   0.0300794   0.0195699
  120   0.0047133   0.0045400  -0.0046926   0.0066736   0.0032062  -0.0405589
  121  -0.0008435  -0.0011152  -0.0015750  -0.0000079   0.0015002   0.0000626
  122   0.0003661   0.0012970  -0.0007984   0.0002643  -0.0011330  -0.0008455
  123   0.0003233   0.0009742   0.0014791   0.0002757  -0.0012304  -0.0001438
  124  -0.0008413  -0.0014661   0.0012654  -0.0000036   0.0014787   0.0002970
  125   0.0004292   0.0013472   0.0007681   0.0003225  -0.0015562   0.0004987
  126  -0.0002285  -0.0010090   0.0014304  -0.0002050   0.0008848   0.0002850
  127  -0.0002819  -0.0016356  -0.0002139  -0.0006791   0.0017226  -0.0011075
  128  -0.0004930  -0.0012833   0.0005416  -0.0001344   0.0011664   0.0009350
  129   0.0003336   0.0008720   0.0002816   0.0001180  -0.0010584   0.0014454
  130  -0.0002789  -0.0016457  -0.0001807  -0.0006767   0.0014154   0.0014921
  131  -0.0003976  -0.0008641  -0.0008253  -0.0001000   0.0011515  -0.0010110
  132  -0.0004425  -0.0011561  -0.0001343  -0.0001504   0.0009872   0.0014597
  133   0.0000988  -0.0000118   0.0005565   0.0001011   0.0002635  -0.0002757
  134   0.0015872   0.0017519   0.0058506  -0.0000015  -0.0059718   0.0037486
  135   0.0007831  -0.0019028  -0.0028175  -0.0009915   0.0038566  -0.0025559
  136  -0.0000093  -0.0008298  -0.0009755  -0.0000946   0.0002795  -0.0001426
  137  -0.0004013  -0.0039285  -0.0040151  -0.0014489   0.0026260  -0.0045715
  138  -0.0016133  -0.0040352  -0.0044778   0.0007500   0.0031136  -0.0034854
  139  -0.0004140  -0.0008727  -0.0013202   0.0000570   0.0002080   0.0014365
  140   0.0002998   0.0011114  -0.0000477   0.0004139  -0.0002069  -0.0008275
  141   0.0001932  -0.0004453   0.0001476   0.0000419   0.0002913   0.0001627
  142  -0.0000587  -0.0005859   0.0014381  -0.0002834   0.0013391  -0.0010175
  143  -0.0004367  -0.0001682   0.0005204  -0.0001583   0.0008029   0.0003945
  144  -0.0001068  -0.0003890   0.0002458   0.0002185   0.0005942   0.0003344
  145   0.0001010   0.0000940  -0.0005021   0.0001020   0.0001842   0.0003322
  146   0.0017291   0.0023909  -0.0045419  -0.0002265  -0.0040092  -0.0041071
  147  -0.0003768   0.0032215  -0.0035068   0.0009693  -0.0042147  -0.0045250
  148  -0.0000158  -0.0010239   0.0007516  -0.0000947   0.0002526   0.0002664
  149  -0.0007802  -0.0058207   0.0036887  -0.0012602   0.0019317   0.0058776
  150   0.0014737   0.0037083  -0.0025969  -0.0010856  -0.0018067  -0.0028536
  151  -0.0004091  -0.0011615   0.0010745   0.0000635   0.0005443  -0.0013478
  152   0.0003451   0.0009392   0.0002419   0.0004205  -0.0003043   0.0007079
  153  -0.0001229   0.0006431   0.0003153   0.0000557  -0.0004085   0.0002679
  154  -0.0000535  -0.0002317  -0.0015337  -0.0002752   0.0010624   0.0013051
  155  -0.0004563  -0.0001117  -0.0006074  -0.0001105   0.0010017  -0.0002279
  156  -0.0000028   0.0003049   0.0001891  -0.0002532  -0.0004351   0.0001235
  157  -0.0190567  -0.0320090  -0.0189838   0.0019615   0.0076872  -0.0047217
  158  -0.0212469  -0.0321270  -0.0237300  -0.0025602   0.0101372  -0.0034430
  159  -0.0126961  -0.0232849  -0.0003405  -0.0008870  -0.0021310  -0.0054014
  160   0.0002008   0.0003044   0.0002814  -0.0000613  -0.0006636  -0.0005699
  161  -0.0002815  -0.0005832  -0.0004126   0.0000983   0.0004805   0.0003121
  162   0.0002249   0.0000221   0.0001939  -0.0000961   0.0001590  -0.0000643
  163  -0.0191615  -0.0355323   0.0107759   0.0019657   0.0063405   0.0064062
  164  -0.0229885  -0.0409083   0.0135189  -0.0026660   0.0079952   0.0066712
  165   0.0069975   0.0132375   0.0087718   0.0002697   0.0054163  -0.0032152
  166   0.0002028   0.0003658  -0.0001993  -0.0000595  -0.0007811   0.0003933
  167  -0.0002154  -0.0006302   0.0002090   0.0000745   0.0005584  -0.0001600
  168  -0.0002864  -0.0002245   0.0002395   0.0001185  -0.0000066  -0.0001453
  169   0.0015016  -0.0053514  -0.0055029  -0.0113970   0.0315567  -0.0083923
  170   0.0036954   0.0083618   0.0074734   0.0197741  -0.0489569   0.0146540
  171   0.0004366   0.0055033  -0.0031291  -0.0053247   0.0137113   0.0090602
  172   0.0000400   0.0008519  -0.0004165   0.0001743  -0.0004818   0.0002269
  173  -0.0000037   0.0004494  -0.0001004   0.0001114  -0.0005948   0.0001803
  174  -0.0001194  -0.0000032  -0.0001341   0.0002528  -0.0002534   0.0002336
  175   0.0015040  -0.0064928   0.0040684  -0.0116510   0.0286779   0.0156378
  176   0.0036820   0.0107615  -0.0040691   0.0174358  -0.0388344  -0.0263430
  177   0.0004775  -0.0020930  -0.0054702   0.0095120  -0.0253537  -0.0008186
  178   0.0000396   0.0007270   0.0006068   0.0001731  -0.0004129  -0.0003353
  179  -0.0000328   0.0003915   0.0002329   0.0001654  -0.0005652  -0.0003722
  180   0.0001157   0.0001322  -0.0000777  -0.0002182   0.0000595   0.0002040
            7           8           9          10          11          12
    1  -0.0003386  -0.0001130  -0.0000138   0.0001845  -0.0001850  -0.0000225
    2   0.0001775   0.0001418  -0.0001918  -0.0001850   0.0004295  -0.0000864
    3   0.0000207  -0.0001915   0.0017029  -0.0000225  -0.0000864   0.0011298
    4   0.0002398   0.0002096   0.0000251  -0.0003386   0.0001775   0.0000207
    5   0.0002096   0.0003751  -0.0000916  -0.0001130   0.0001418  -0.0001915
    6   0.0000251  -0.0000916   0.0011287  -0.0000138  -0.0001918   0.0017029
    7   0.1651562  -0.0604864  -0.0071964  -0.0307809  -0.0155932  -0.0014624
    8  -0.0604864   0.6764895   0.0207716  -0.0215061  -0.3039050  -0.0213530
    9  -0.0071964   0.0207716   0.5149571  -0.0019930  -0.0214194  -0.1320676
   10  -0.0307809  -0.0215061  -0.0019930   0.1929389   0.1269626   0.0149547
   11  -0.0155932  -0.3039050  -0.0214194   0.1269626   0.6495623   0.0168395
   12  -0.0014624  -0.0213530  -0.1320676   0.0149547   0.0168395   0.5135340
   13  -0.0000174   0.0008949   0.0011199  -0.0000858  -0.0011270   0.0006960
   14  -0.0004938  -0.0003030   0.0011088   0.0005599   0.0000485  -0.0012743
   15  -0.0003898  -0.0000433   0.0001460  -0.0002625   0.0000529  -0.0001329
   16   0.0003320  -0.0013131   0.0003479   0.0004908   0.0013057   0.0008231
   17   0.0001694   0.0016227  -0.0008367  -0.0001688   0.0010652   0.0012344
   18   0.0005452  -0.0003475  -0.0008303   0.0005875   0.0007535  -0.0004408
   19  -0.0000254   0.0011282  -0.0008680  -0.0000891  -0.0009192  -0.0009418
   20  -0.0005696  -0.0000322  -0.0011536   0.0004799  -0.0002414   0.0012455
   21   0.0002577  -0.0000010  -0.0001275   0.0003827  -0.0000814   0.0001571
   22   0.0003295  -0.0011841  -0.0006572   0.0004952   0.0014530  -0.0004845
   23   0.0002908   0.0012074   0.0013402  -0.0000233   0.0014445  -0.0007790
   24  -0.0004853   0.0008595  -0.0004135  -0.0006073  -0.0003131  -0.0008144
   25  -0.0005664   0.0007738  -0.0009783   0.0000521   0.0007636   0.0012732
   26   0.0007042   0.0004615   0.0001252  -0.0003351  -0.0001493  -0.0006095
   27  -0.0006025  -0.0013928   0.0012268   0.0000063   0.0010234  -0.0000880
   28  -0.0005685   0.0005159   0.0011287   0.0000509   0.0010451  -0.0010599
   29   0.0005403   0.0002141  -0.0003714  -0.0003242  -0.0000416   0.0006271
   30   0.0007603   0.0011493   0.0014782  -0.0000839  -0.0010167  -0.0001826
   31  -0.0000293  -0.0010621   0.0011279  -0.0007222  -0.0003696  -0.0011367
   32   0.0003315   0.0000501   0.0004632  -0.0004059   0.0003455  -0.0002072
   33  -0.0000545  -0.0009946  -0.0002015  -0.0005512   0.0012400   0.0015040
   34  -0.0000322  -0.0007682  -0.0013535  -0.0007285  -0.0006296   0.0010187
   35   0.0003095  -0.0000897  -0.0004330  -0.0005242   0.0006540   0.0000025
   36   0.0001398   0.0010277  -0.0000644   0.0004498  -0.0014516   0.0012026
   37   0.0001158   0.0001853  -0.0004700  -0.0000821  -0.0001227  -0.0006859
   38  -0.0003890   0.0006742   0.0008730  -0.0000120  -0.0007475  -0.0003287
   39   0.0000672  -0.0001827  -0.0020679   0.0002624   0.0004381  -0.0006255
   40   0.0001089   0.0000682   0.0004980  -0.0000818  -0.0002829   0.0006358
   41  -0.0003618   0.0006785  -0.0001994   0.0000510  -0.0007184   0.0003049
   42  -0.0001526   0.0008562  -0.0020685  -0.0002566  -0.0004593  -0.0006577
   43  -0.0000674   0.0001827  -0.0005979   0.0001622   0.0000197  -0.0005605
   44  -0.0001353  -0.0007361   0.0003936   0.0004323   0.0006275  -0.0001320
   45   0.0001829  -0.0004934  -0.0006509   0.0002377   0.0008303  -0.0020667
   46  -0.0000714   0.0000343   0.0006217   0.0001581  -0.0001135   0.0005479
   47  -0.0000891  -0.0007544  -0.0004195   0.0004763   0.0006333   0.0007932
   48  -0.0002075   0.0004676  -0.0006311  -0.0001247  -0.0001666  -0.0020716
   49  -0.0510021   0.0224176   0.0392693  -0.0038839   0.0153909   0.0003027
   50   0.0240528  -0.1164610  -0.0405578  -0.0020468  -0.0265933  -0.0289660
   51   0.0301984  -0.0226635  -0.1694596  -0.0054750  -0.0403224   0.0113438
   52  -0.0489104   0.0320249  -0.0332903  -0.0035871   0.0146877   0.0033908
   53   0.0296489  -0.1328119   0.0486688  -0.0029563  -0.0407361   0.0162881
   54  -0.0233577   0.0308203  -0.1515900   0.0046752   0.0276834   0.0251594
   55  -0.0059663  -0.0189835  -0.0007075  -0.0611951  -0.0415726   0.0383562
   56  -0.0015669  -0.0385563   0.0166241  -0.0403644  -0.1237901   0.0442523
   57  -0.0002694   0.0283250   0.0253826   0.0264192   0.0283686  -0.1525897
   58  -0.0056903  -0.0185877  -0.0038121  -0.0571968  -0.0311637  -0.0470846
   59  -0.0016817  -0.0243402  -0.0287212  -0.0311933  -0.1076646  -0.0333483
   60  -0.0001039  -0.0404345   0.0112508  -0.0342100  -0.0174521  -0.1672074
   61   0.0003660  -0.0011419  -0.0009089   0.0002905   0.0015743   0.0006571
   62   0.0000383  -0.0000093   0.0003624  -0.0002678  -0.0010284   0.0019213
   63  -0.0001639  -0.0007783  -0.0003328   0.0005081   0.0007177  -0.0002502
   64   0.0000711  -0.0017593  -0.0000223   0.0005262   0.0012498  -0.0006551
   65   0.0000438  -0.0001427  -0.0019687  -0.0000933  -0.0002976  -0.0002209
   66   0.0004362  -0.0007850  -0.0009177  -0.0000631   0.0008225  -0.0002027
   67   0.0029126   0.0000951   0.0022992  -0.0012377  -0.0055242   0.0027961
   68   0.0002423  -0.0025217   0.0023113   0.0002599   0.0010158  -0.0007138
   69   0.0068117   0.0031918  -0.0023520  -0.0011322   0.0030334  -0.0007636
   70  -0.0004934   0.0049336   0.0041645   0.0026204  -0.0012455   0.0018035
   71   0.0003115   0.0007547   0.0006867  -0.0024421  -0.0008098  -0.0022678
   72  -0.0015153  -0.0023781  -0.0012291   0.0059685  -0.0037725  -0.0037683
   73   0.0003595  -0.0013252   0.0006040   0.0002861   0.0016825  -0.0002713
   74  -0.0000006  -0.0001247  -0.0003063  -0.0001355  -0.0003715  -0.0019515
   75   0.0001634   0.0008221  -0.0002148  -0.0005601  -0.0007453  -0.0009044
   76   0.0000666  -0.0017127  -0.0003971   0.0005244   0.0010535   0.0009333
   77   0.0001438  -0.0008214   0.0019905  -0.0001097  -0.0001582   0.0002274
   78  -0.0004142   0.0008059  -0.0002354   0.0000386  -0.0008023  -0.0003454
   79   0.0028950   0.0006507  -0.0022474  -0.0012428  -0.0046865  -0.0040304
   80   0.0019034  -0.0012724  -0.0019677  -0.0000024   0.0014506   0.0012743
   81  -0.0066042  -0.0029552  -0.0036398   0.0011516  -0.0024835  -0.0012087
   82  -0.0005106   0.0057624  -0.0028674   0.0025980  -0.0007425  -0.0020664
   83  -0.0000624   0.0002509  -0.0003224  -0.0009231  -0.0023996   0.0025770
   84   0.0015130   0.0027268  -0.0007543  -0.0064480   0.0041634  -0.0021976
   85   0.0000927   0.0007285   0.0002507  -0.0002481  -0.0003625  -0.0007969
   86   0.0000259  -0.0000243   0.0006641  -0.0000922  -0.0001038  -0.0000687
   87  -0.0000512   0.0007660  -0.0007872  -0.0001139  -0.0000631   0.0001673
   88   0.0034225  -0.0018074  -0.0083655   0.0009641   0.0044710  -0.0018876
   89   0.0033581  -0.0034364   0.0015454  -0.0000218   0.0012743  -0.0005495
   90  -0.0021252   0.0089927   0.0068016  -0.0002749  -0.0076298   0.0047701
   91   0.0000868   0.0007630  -0.0000669  -0.0002487  -0.0005389   0.0006869
   92   0.0000204   0.0002647  -0.0004078  -0.0001136  -0.0001206  -0.0000018
   93   0.0000576  -0.0005081  -0.0010746   0.0000901  -0.0000070   0.0001790
   94   0.0033926  -0.0037139   0.0076890   0.0009583   0.0039117   0.0029101
   95   0.0028074  -0.0003855  -0.0033614  -0.0000835  -0.0004362  -0.0007380
   96   0.0028621  -0.0107139   0.0037095   0.0002568   0.0063509   0.0064490
   97  -0.0001683   0.0005442  -0.0006745  -0.0000130  -0.0007333  -0.0000083
   98   0.0001216  -0.0002148   0.0000900   0.0000178   0.0003697  -0.0004119
   99  -0.0000840  -0.0000034   0.0001964  -0.0001480  -0.0004846  -0.0010730
  100   0.0003779  -0.0039026  -0.0028797   0.0032977   0.0030521  -0.0080812
  101  -0.0000419   0.0001066  -0.0003232  -0.0033182  -0.0004569  -0.0021545
  102   0.0007191   0.0063813   0.0065111  -0.0043485  -0.0103202   0.0039713
  103  -0.0001717   0.0003666   0.0007831  -0.0000162  -0.0007101  -0.0001658
  104   0.0000952  -0.0001714  -0.0001818  -0.0000244   0.0000793   0.0006951
  105   0.0001091  -0.0000864   0.0001496   0.0001409   0.0007643  -0.0007869
  106   0.0003690  -0.0044891   0.0018628   0.0032535   0.0010116   0.0085625
  107   0.0001286   0.0018725  -0.0008093  -0.0042897  -0.0030721   0.0004868
  108  -0.0007177  -0.0075289   0.0047308   0.0034056   0.0085698   0.0065492
  109  -0.0006767   0.0014154   0.0014921  -0.0002789  -0.0016457  -0.0001807
  110  -0.0001000   0.0011515  -0.0010110  -0.0003976  -0.0008641  -0.0008253
  111  -0.0001504   0.0009872   0.0014597  -0.0004425  -0.0011561  -0.0001343
  112  -0.0006791   0.0017226  -0.0011075  -0.0002819  -0.0016356  -0.0002139
  113  -0.0001344   0.0011664   0.0009350  -0.0004930  -0.0012833   0.0005416
  114   0.0001180  -0.0010584   0.0014454   0.0003336   0.0008720   0.0002816
  115  -0.0000036   0.0014787   0.0002970  -0.0008413  -0.0014661   0.0012654
  116   0.0003225  -0.0015562   0.0004987   0.0004292   0.0013472   0.0007681
  117  -0.0002050   0.0008848   0.0002850  -0.0002285  -0.0010090   0.0014304
  118  -0.0000079   0.0015002   0.0000626  -0.0008435  -0.0011152  -0.0015750
  119   0.0002643  -0.0011330  -0.0008455   0.0003661   0.0012970  -0.0007984
  120   0.0002757  -0.0012304  -0.0001438   0.0003233   0.0009742   0.0014791
  121  -0.0086343  -0.0076919   0.0200136   0.0006913  -0.0031101  -0.0006594
  122  -0.0087917   0.0300794   0.0195699  -0.0044591  -0.0250901   0.0172022
  123   0.0066736   0.0032062  -0.0405589   0.0047133   0.0045400  -0.0046926
  124  -0.0084527  -0.0025676  -0.0213524   0.0006319  -0.0031687  -0.0002642
  125  -0.0067724   0.0313192  -0.0019337  -0.0031098  -0.0190412  -0.0206426
  126  -0.0090404   0.0143804  -0.0418724  -0.0058898  -0.0077299  -0.0108418
  127   0.0011863   0.0001353  -0.0029011  -0.0059356   0.0080760   0.0202688
  128  -0.0000169  -0.0194002  -0.0205115   0.0119293   0.0294164  -0.0048449
  129   0.0042959  -0.0087071  -0.0110087   0.0100121   0.0127467  -0.0422812
  130   0.0013031  -0.0004724   0.0028701  -0.0057252   0.0126355  -0.0177278
  131   0.0009638  -0.0257664   0.0168294   0.0140763   0.0270387   0.0219725
  132  -0.0042110   0.0049082  -0.0045897  -0.0070454   0.0039845  -0.0401674
  133  -0.0002752   0.0010624   0.0013051  -0.0000535  -0.0002317  -0.0015337
  134  -0.0001105   0.0010017  -0.0002279  -0.0004563  -0.0001117  -0.0006074
  135  -0.0002532  -0.0004351   0.0001235  -0.0000028   0.0003049   0.0001891
  136   0.0000635   0.0005443  -0.0013478  -0.0004091  -0.0011615   0.0010745
  137   0.0004205  -0.0003043   0.0007079   0.0003451   0.0009392   0.0002419
  138   0.0000557  -0.0004085   0.0002679  -0.0001229   0.0006431   0.0003153
  139  -0.0000947   0.0002526   0.0002664  -0.0000158  -0.0010239   0.0007516
  140  -0.0012602   0.0019317   0.0058776  -0.0007802  -0.0058207   0.0036887
  141  -0.0010856  -0.0018067  -0.0028536   0.0014737   0.0037083  -0.0025969
  142   0.0001020   0.0001842   0.0003322   0.0001010   0.0000940  -0.0005021
  143  -0.0002265  -0.0040092  -0.0041071   0.0017291   0.0023909  -0.0045419
  144   0.0009693  -0.0042147  -0.0045250  -0.0003768   0.0032215  -0.0035068
  145  -0.0002834   0.0013391  -0.0010175  -0.0000587  -0.0005859   0.0014381
  146  -0.0001583   0.0008029   0.0003945  -0.0004367  -0.0001682   0.0005204
  147   0.0002185   0.0005942   0.0003344  -0.0001068  -0.0003890   0.0002458
  148   0.0000570   0.0002080   0.0014365  -0.0004140  -0.0008727  -0.0013202
  149   0.0004139  -0.0002069  -0.0008275   0.0002998   0.0011114  -0.0000477
  150   0.0000419   0.0002913   0.0001627   0.0001932  -0.0004453   0.0001476
  151  -0.0000946   0.0002795  -0.0001426  -0.0000093  -0.0008298  -0.0009755
  152  -0.0014489   0.0026260  -0.0045715  -0.0004013  -0.0039285  -0.0040151
  153   0.0007500   0.0031136  -0.0034854  -0.0016133  -0.0040352  -0.0044778
  154   0.0001011   0.0002635  -0.0002757   0.0000988  -0.0000118   0.0005565
  155  -0.0000015  -0.0059718   0.0037486   0.0015872   0.0017519   0.0058506
  156  -0.0009915   0.0038566  -0.0025559   0.0007831  -0.0019028  -0.0028175
  157   0.0001731  -0.0004129  -0.0003353   0.0000396   0.0007270   0.0006068
  158   0.0001654  -0.0005652  -0.0003722  -0.0000328   0.0003915   0.0002329
  159  -0.0002182   0.0000595   0.0002040   0.0001157   0.0001322  -0.0000777
  160  -0.0116510   0.0286779   0.0156378   0.0015040  -0.0064928   0.0040684
  161   0.0174358  -0.0388344  -0.0263430   0.0036820   0.0107615  -0.0040691
  162   0.0095120  -0.0253537  -0.0008186   0.0004775  -0.0020930  -0.0054702
  163   0.0001743  -0.0004818   0.0002269   0.0000400   0.0008519  -0.0004165
  164   0.0001114  -0.0005948   0.0001803  -0.0000037   0.0004494  -0.0001004
  165   0.0002528  -0.0002534   0.0002336  -0.0001194  -0.0000032  -0.0001341
  166  -0.0113970   0.0315567  -0.0083924   0.0015016  -0.0053514  -0.0055029
  167   0.0197742  -0.0489569   0.0146540   0.0036954   0.0083618   0.0074734
  168  -0.0053247   0.0137113   0.0090602   0.0004366   0.0055033  -0.0031291
  169  -0.0000595  -0.0007811   0.0003933   0.0002028   0.0003658  -0.0001993
  170   0.0000745   0.0005584  -0.0001600  -0.0002154  -0.0006302   0.0002090
  171   0.0001185  -0.0000066  -0.0001453  -0.0002864  -0.0002245   0.0002395
  172   0.0019657   0.0063405   0.0064062  -0.0191615  -0.0355323   0.0107759
  173  -0.0026660   0.0079951   0.0066712  -0.0229885  -0.0409083   0.0135189
  174   0.0002697   0.0054163  -0.0032152   0.0069975   0.0132375   0.0087718
  175  -0.0000613  -0.0006636  -0.0005699   0.0002008   0.0003044   0.0002814
  176   0.0000983   0.0004805   0.0003121  -0.0002815  -0.0005832  -0.0004126
  177  -0.0000961   0.0001590  -0.0000643   0.0002249   0.0000221   0.0001939
  178   0.0019615   0.0076872  -0.0047217  -0.0190567  -0.0320090  -0.0189838
  179  -0.0025602   0.0101372  -0.0034430  -0.0212469  -0.0321270  -0.0237300
  180  -0.0008870  -0.0021310  -0.0054014  -0.0126961  -0.0232849  -0.0003405
           13          14          15          16          17          18
    1   0.0004952  -0.0000233  -0.0006073  -0.0000891   0.0004799   0.0003827
    2   0.0014530   0.0014445  -0.0003131  -0.0009192  -0.0002414  -0.0000814
    3  -0.0004845  -0.0007790  -0.0008144  -0.0009418   0.0012454   0.0001571
    4   0.0003295   0.0002908  -0.0004853  -0.0000254  -0.0005696   0.0002577
    5  -0.0011841   0.0012074   0.0008595   0.0011282  -0.0000322  -0.0000010
    6  -0.0006572   0.0013402  -0.0004135  -0.0008680  -0.0011536  -0.0001275
    7  -0.0000174  -0.0004938  -0.0003898   0.0003320   0.0001694   0.0005452
    8   0.0008949  -0.0003030  -0.0000433  -0.0013131   0.0016227  -0.0003475
    9   0.0011199   0.0011088   0.0001460   0.0003479  -0.0008367  -0.0008303
   10  -0.0000858   0.0005599  -0.0002625   0.0004908  -0.0001688   0.0005875
   11  -0.0011270   0.0000485   0.0000529   0.0013057   0.0010652   0.0007535
   12   0.0006960  -0.0012743  -0.0001329   0.0008231   0.0012344  -0.0004408
   13   0.6664185  -0.0224912   0.0948291  -0.3066704   0.0122946   0.0042666
   14  -0.0224912   0.5099087   0.0329090   0.0131846  -0.1288574  -0.0116637
   15   0.0948291   0.0329090   0.1796380  -0.0013423  -0.0113803  -0.0318698
   16  -0.3066704   0.0131846  -0.0013423   0.6647957   0.0001777  -0.0961613
   17   0.0122946  -0.1288574  -0.0113803   0.0001777   0.5064225   0.0466383
   18   0.0042666  -0.0116637  -0.0318698  -0.0961613   0.0466383   0.1798977
   19   0.0001298   0.0001281  -0.0001322   0.0003944   0.0000276   0.0002038
   20   0.0000942   0.0016886   0.0002550   0.0000276   0.0011260   0.0000966
   21   0.0001587   0.0002348  -0.0003128   0.0002038   0.0000966   0.0002221
   22   0.0003954   0.0000765  -0.0001911   0.0001298   0.0000942   0.0001587
   23   0.0000765   0.0011188   0.0001235   0.0001281   0.0016886   0.0002348
   24  -0.0001911   0.0001235   0.0002283  -0.0001322   0.0002550  -0.0003128
   25   0.0014713   0.0009321  -0.0000053   0.0012427  -0.0012198   0.0000456
   26   0.0002710  -0.0008639   0.0004155  -0.0005705  -0.0006552   0.0004180
   27   0.0014147   0.0003346   0.0005098  -0.0013650   0.0005462   0.0005364
   28  -0.0002186  -0.0012539   0.0003585  -0.0000492   0.0012761  -0.0004006
   29   0.0001558   0.0000174  -0.0003473  -0.0001501  -0.0001383  -0.0002922
   30  -0.0009480   0.0009984   0.0000185   0.0010738   0.0008319   0.0000120
   31   0.0012373  -0.0011781  -0.0003470   0.0014753   0.0009047   0.0002271
   32  -0.0008787  -0.0003673  -0.0006234   0.0006113  -0.0006209  -0.0006889
   33   0.0011853  -0.0007662   0.0002626  -0.0013006  -0.0006150   0.0002685
   34  -0.0000505   0.0011467   0.0006895  -0.0002190  -0.0011298  -0.0006439
   35   0.0001096  -0.0000080   0.0002939  -0.0000743   0.0001656   0.0003838
   36  -0.0010808  -0.0008391  -0.0001245   0.0009540  -0.0009605  -0.0001323
   37  -0.0027509  -0.0010702  -0.0038250   0.0011661   0.0004860   0.0001115
   38  -0.0094183   0.0074361  -0.0024740   0.0078758   0.0053105   0.0007883
   39   0.0007047  -0.0078946   0.0020504  -0.0034852  -0.0015500   0.0005105
   40   0.0001008  -0.0006303  -0.0000953  -0.0001444   0.0000963   0.0001163
   41  -0.0006319  -0.0008543  -0.0002100   0.0000112   0.0002670  -0.0000524
   42  -0.0008126   0.0000645   0.0000358   0.0004113  -0.0007152  -0.0003061
   43  -0.0010933   0.0028964  -0.0028944   0.0001444   0.0001989   0.0000384
   44   0.0098607   0.0030781   0.0034488  -0.0061592   0.0058023   0.0003972
   45   0.0042052   0.0080210   0.0048044  -0.0048410   0.0033263   0.0010486
   46   0.0002688   0.0004735   0.0000545  -0.0001620  -0.0000761   0.0001093
   47   0.0006508  -0.0010176  -0.0000233  -0.0000712   0.0000810   0.0001311
   48  -0.0006739  -0.0001973   0.0000309   0.0005047   0.0007417  -0.0001065
   49   0.0001374   0.0001890   0.0000335  -0.0011194   0.0020621   0.0035564
   50  -0.0071438   0.0063971   0.0009103   0.0105683   0.0058526  -0.0031039
   51   0.0032262  -0.0020074   0.0004539  -0.0016992  -0.0077434   0.0019648
   52  -0.0001629  -0.0000484  -0.0001228   0.0002683   0.0004726   0.0000707
   53   0.0000491   0.0002767  -0.0000352   0.0004686  -0.0010070  -0.0002237
   54  -0.0005073  -0.0006500  -0.0002995   0.0008115  -0.0000566   0.0000096
   55   0.0011604   0.0005205   0.0000305  -0.0027782  -0.0018817   0.0035307
   56   0.0068289   0.0048709   0.0002835  -0.0089697   0.0047716   0.0030849
   57   0.0052633   0.0026116   0.0009538  -0.0028997   0.0085588   0.0046967
   58  -0.0001496   0.0001210  -0.0000891   0.0001000  -0.0006365  -0.0000467
   59   0.0001082   0.0000583   0.0001389  -0.0008053  -0.0008326  -0.0000103
   60  -0.0003938   0.0008045  -0.0000979   0.0006402  -0.0002739   0.0000063
   61  -0.1153717   0.0430077  -0.0259470  -0.0289015   0.0270201   0.0033092
   62   0.0262527  -0.1727350   0.0167938   0.0401749   0.0146136  -0.0004614
   63  -0.0271289   0.0272802  -0.0462106  -0.0123060   0.0034667  -0.0046804
   64  -0.1249049  -0.0410411  -0.0410742  -0.0373594  -0.0194943  -0.0017780
   65  -0.0242156  -0.1463051  -0.0375833  -0.0286731   0.0222868   0.0059398
   66  -0.0390575  -0.0478871  -0.0635637  -0.0205533   0.0045563  -0.0036441
   67  -0.0373346  -0.0197971  -0.0027076  -0.1232137  -0.0486403   0.0269592
   68  -0.0328458   0.0230201   0.0006717  -0.0324339  -0.1616742   0.0125895
   69   0.0131838   0.0020058  -0.0044528   0.0313843   0.0244172  -0.0456154
   70  -0.0291054   0.0271071   0.0031597  -0.1150037   0.0353720   0.0337697
   71   0.0361431   0.0142495   0.0050472   0.0189734  -0.1552826  -0.0425511
   72   0.0214645   0.0011335  -0.0039509   0.0320155  -0.0547528  -0.0627136
   73   0.0006850  -0.0007445   0.0003403  -0.0007515   0.0003723  -0.0000062
   74   0.0003273  -0.0020161  -0.0001445  -0.0004692  -0.0005743   0.0001719
   75  -0.0000843  -0.0007758   0.0000544   0.0000570  -0.0007119  -0.0001292
   76   0.0006811   0.0002528   0.0004437  -0.0007337  -0.0003414  -0.0001242
   77  -0.0006959  -0.0021034  -0.0004491   0.0004469  -0.0006878  -0.0002979
   78  -0.0001332   0.0002594   0.0001452   0.0002551   0.0005537  -0.0000323
   79  -0.0007368  -0.0003608   0.0000390   0.0006821   0.0003526  -0.0003695
   80   0.0004936  -0.0005898   0.0001609  -0.0007051  -0.0020196  -0.0000835
   81  -0.0001431  -0.0006915  -0.0001303  -0.0000366  -0.0007899   0.0000572
   82  -0.0007499   0.0003591   0.0000930   0.0006834  -0.0006392  -0.0005112
   83  -0.0004438  -0.0006752  -0.0003070   0.0002977  -0.0021117  -0.0003873
   84  -0.0001632   0.0005785  -0.0000303   0.0001588   0.0002472   0.0001462
   85  -0.0021771  -0.0022788  -0.0012288   0.0007475   0.0006034  -0.0000092
   86  -0.0036057  -0.0035228   0.0058349  -0.0034776  -0.0010826  -0.0013804
   87  -0.0009924   0.0014069   0.0037685   0.0051527   0.0030946  -0.0006593
   88   0.0010236  -0.0008434  -0.0002147  -0.0013033   0.0020620   0.0020950
   89   0.0031215  -0.0014488  -0.0013938   0.0034172  -0.0043080   0.0055572
   90  -0.0046758   0.0037870  -0.0005896   0.0012126   0.0011574   0.0037008
   91  -0.0001099  -0.0002731  -0.0000996  -0.0007942  -0.0019943  -0.0000694
   92   0.0006609  -0.0001890  -0.0001784  -0.0005830  -0.0004849   0.0003959
   93   0.0012417  -0.0009430   0.0003174  -0.0017592   0.0003665   0.0002806
   94  -0.0003982   0.0019904   0.0001330  -0.0001882   0.0002573   0.0000797
   95   0.0005800  -0.0008433   0.0003701  -0.0006638  -0.0001329  -0.0001778
   96   0.0018052   0.0000827   0.0002525  -0.0013468  -0.0007639   0.0003353
   97  -0.0013463   0.0024525  -0.0015559   0.0010320  -0.0008782   0.0000129
   98   0.0035882  -0.0022966  -0.0069902   0.0019456  -0.0008533   0.0013534
   99  -0.0004345  -0.0027095   0.0016731   0.0053035  -0.0038743  -0.0011838
  100   0.0007565   0.0005835   0.0001334  -0.0021689  -0.0025504   0.0006536
  101  -0.0021340  -0.0006505   0.0013907  -0.0037227  -0.0014446  -0.0071021
  102  -0.0058038  -0.0030913  -0.0010902   0.0000840  -0.0026575   0.0016387
  103  -0.0001869   0.0002672  -0.0000136  -0.0003980   0.0019621   0.0003411
  104  -0.0009685  -0.0003254   0.0000137   0.0009936  -0.0006783  -0.0005983
  105   0.0011524   0.0006038   0.0005379  -0.0016150  -0.0003121   0.0000790
  106  -0.0007916  -0.0019544  -0.0004142  -0.0001099  -0.0002892   0.0000259
  107  -0.0009873  -0.0002636  -0.0005250   0.0009373  -0.0004183  -0.0000021
  108   0.0015661  -0.0005043   0.0000679  -0.0010429   0.0007587   0.0005489
  109  -0.0379465   0.0254260  -0.0166048   0.0102107   0.0048859  -0.0025486
  110   0.0259071  -0.0014244   0.0112507   0.0020476  -0.0056364  -0.0003578
  111  -0.0285207   0.0174814  -0.0120130   0.0071753   0.0038685   0.0022279
  112  -0.0005947   0.0003794  -0.0001657   0.0004596  -0.0002511   0.0000276
  113  -0.0001268   0.0002798  -0.0002298  -0.0000307  -0.0001686   0.0000893
  114   0.0003636  -0.0002808   0.0001307  -0.0007361   0.0005336   0.0000667
  115  -0.0433831  -0.0142946  -0.0224031   0.0088705  -0.0060842  -0.0039060
  116  -0.0118883   0.0091638  -0.0042316  -0.0055717  -0.0030139  -0.0006453
  117  -0.0349289  -0.0082940  -0.0170603   0.0055117  -0.0062304   0.0009329
  118  -0.0006150  -0.0002135  -0.0002026   0.0004975   0.0001567   0.0000608
  119   0.0001496   0.0001776   0.0002638   0.0001305  -0.0000615  -0.0001207
  120   0.0004335   0.0002341   0.0002575  -0.0007855  -0.0004528  -0.0000790
  121   0.0087707  -0.0068440   0.0023588  -0.0439170  -0.0192626   0.0198174
  122  -0.0041306  -0.0043643  -0.0006700  -0.0201903   0.0047762   0.0100605
  123  -0.0066808   0.0049320   0.0022994   0.0311463   0.0136294  -0.0125091
  124   0.0004975   0.0001658  -0.0000210  -0.0006142  -0.0002563   0.0001476
  125  -0.0000593  -0.0001958   0.0000944   0.0002437   0.0002939  -0.0002447
  126   0.0007972   0.0004224   0.0000533  -0.0003841  -0.0002218   0.0001292
  127   0.0100848   0.0041309   0.0036295  -0.0383655   0.0204930   0.0236896
  128   0.0037555  -0.0043661  -0.0012470   0.0188521   0.0047488  -0.0080222
[...]
 C          0.099 -0.113 -0.010    0.033 -0.202  0.044    0.059 -0.063 -0.008
 C         -0.099  0.038 -0.027   -0.004  0.023  0.011   -0.100  0.242  0.090
 C         -0.114 -0.062 -0.022    0.103  0.237 -0.043   -0.005  0.003 -0.002
 C         -0.123 -0.030 -0.034    0.082  0.046 -0.017    0.043  0.003  0.025
 C          0.106 -0.053 -0.016    0.044 -0.038  0.017    0.099 -0.038 -0.032
 C          0.130  0.043 -0.013   -0.067 -0.019  0.016   -0.048 -0.023 -0.020
 C         -0.127  0.050 -0.050   -0.025  0.013 -0.002   -0.130  0.071  0.000
 C         -0.127  0.050 -0.050   -0.025  0.013 -0.002   -0.130  0.071  0.000
 C          0.130  0.043 -0.013   -0.067 -0.019  0.016   -0.048 -0.023 -0.020
 C          0.106 -0.053 -0.016    0.044 -0.038  0.017    0.099 -0.038 -0.032
 C         -0.123 -0.030 -0.034    0.082  0.046 -0.017    0.043  0.003  0.025
 C          0.011 -0.013  0.014    0.035 -0.173  0.101    0.002  0.047 -0.011
 C         -0.010 -0.073 -0.034   -0.008 -0.027 -0.005   -0.015  0.105  0.088
 C          0.045  0.031  0.071   -0.019  0.032 -0.014   -0.026 -0.130 -0.095
 C         -0.003  0.064 -0.007    0.046  0.140 -0.083   -0.011 -0.032  0.017
 C         -0.003  0.064 -0.007    0.046  0.140 -0.083   -0.011 -0.032  0.017
 C          0.045  0.031  0.071   -0.019  0.032 -0.014   -0.026 -0.130 -0.095
 C         -0.010 -0.073 -0.034   -0.008 -0.027 -0.005   -0.015  0.105  0.088
 C          0.011 -0.013  0.014    0.035 -0.173  0.101    0.002  0.047 -0.011
 C          0.119  0.050 -0.003   -0.121 -0.209  0.102    0.007 -0.005  0.004
 C          0.103 -0.028  0.015    0.004 -0.020 -0.017    0.124 -0.201 -0.144
 C         -0.114  0.101 -0.023   -0.053  0.184 -0.090   -0.066  0.056 -0.011
 C         -0.145 -0.102 -0.066    0.048  0.035  0.022    0.053  0.127  0.114
 C         -0.145 -0.102 -0.066    0.048  0.035  0.022    0.053  0.127  0.114
 C         -0.114  0.101 -0.023   -0.053  0.184 -0.090   -0.066  0.056 -0.011
 C          0.103 -0.028  0.015    0.004 -0.020 -0.017    0.124 -0.201 -0.144
 C          0.119  0.050 -0.003   -0.121 -0.209  0.102    0.007 -0.005  0.004
 C          0.110  0.057  0.048   -0.076 -0.060  0.009   -0.038 -0.014 -0.029
 C         -0.089  0.071  0.032   -0.038  0.045 -0.013   -0.084  0.060  0.042
 C         -0.113 -0.071  0.022    0.060  0.036 -0.018    0.044  0.033  0.021
 C          0.105 -0.080  0.057    0.022 -0.019  0.001    0.112 -0.099  0.007
 C          0.105 -0.080  0.057    0.022 -0.019  0.001    0.112 -0.099  0.007
 C         -0.113 -0.071  0.022    0.060  0.036 -0.018    0.044  0.033  0.021
 C         -0.089  0.071  0.032   -0.038  0.045 -0.013   -0.084  0.060  0.042
 C          0.110  0.057  0.048   -0.076 -0.060  0.009   -0.038 -0.014 -0.029
 TransDip  -0.001  0.000 -0.001    0.000 -0.001  0.000    0.000 -0.001 -0.001

 Mode:               169                    170                    171
 Frequency:      1587.11                1595.06                1595.81
 Force Cnst:     17.8092                17.9881                18.0050
 Red. Mass:      12.0000                12.0000                12.0000
 IR Active:          YES                    NO                     NO 
 IR Intens:        0.001                  0.000                  0.000
 Raman Active:       NO                     YES                    YES
               X      Y      Z        X      Y      Z        X      Y      Z
 C          0.007  0.019  0.062   -0.020 -0.094 -0.016    0.007  0.046  0.068
 C          0.000 -0.019 -0.063   -0.007  0.096  0.015    0.008 -0.049 -0.068
 C          0.000 -0.019 -0.063    0.007 -0.096 -0.015   -0.008  0.049  0.068
 C          0.007  0.019  0.062    0.020  0.094  0.016   -0.007 -0.046 -0.068
 C          0.036  0.004  0.005    0.135 -0.013  0.021    0.050  0.046  0.012
 C         -0.036 -0.002  0.005   -0.131  0.008  0.015   -0.050 -0.049  0.000
 C         -0.036 -0.002  0.005    0.131 -0.008 -0.015    0.050  0.049  0.000
 C          0.036  0.004  0.005   -0.135  0.013 -0.021   -0.050 -0.046 -0.012
 C          0.064 -0.046  0.161   -0.046 -0.055  0.221   -0.006  0.007 -0.007
 C         -0.068  0.003 -0.166    0.042 -0.006 -0.228    0.006 -0.006  0.004
 C         -0.068  0.003 -0.166   -0.042  0.006  0.228   -0.006  0.006 -0.004
 C          0.064 -0.046  0.161    0.046  0.055 -0.221    0.006 -0.007  0.007
 C         -0.073  0.063 -0.188    0.006  0.023 -0.006   -0.024 -0.040 -0.006
 C          0.007 -0.014 -0.037   -0.029 -0.008  0.046    0.048 -0.079 -0.235
 C          0.072  0.038  0.216   -0.002 -0.023 -0.024    0.025 -0.004  0.048
 C         -0.006 -0.001  0.013   -0.024  0.008  0.033   -0.063 -0.071  0.181
 C         -0.006 -0.001  0.013    0.024 -0.008 -0.033    0.063  0.071 -0.181
 C          0.072  0.038  0.216    0.002  0.023  0.024   -0.025  0.004 -0.048
 C          0.007 -0.014 -0.037    0.029  0.008 -0.046   -0.048  0.079  0.235
 C         -0.073  0.063 -0.188   -0.006 -0.023  0.006    0.024  0.040  0.006
 C         -0.065 -0.007 -0.025   -0.027  0.037 -0.021   -0.058 -0.078  0.004
 C          0.026  0.037  0.036   -0.034 -0.027 -0.030    0.035 -0.073 -0.021
 C          0.002  0.005 -0.002    0.106 -0.157 -0.004    0.019  0.089 -0.036
 C          0.023  0.001 -0.009    0.128  0.132  0.028    0.036  0.128  0.071
 C          0.023  0.001 -0.009   -0.128 -0.132 -0.028   -0.036 -0.128 -0.071
 C          0.002  0.005 -0.002   -0.106  0.157  0.004   -0.019 -0.089  0.036
 C          0.026  0.037  0.036    0.034  0.027  0.030   -0.035  0.073  0.021
 C         -0.065 -0.007 -0.025    0.027 -0.037  0.021    0.058  0.078 -0.004
 C         -0.194  0.001 -0.138    0.010  0.031 -0.053   -0.126 -0.027 -0.040
 C         -0.027  0.029 -0.023    0.154 -0.034 -0.101    0.108 -0.015 -0.068
 C          0.064  0.027  0.017   -0.172 -0.036  0.099    0.096  0.006 -0.079
 C          0.149 -0.037  0.127    0.008  0.013  0.065   -0.154  0.062 -0.056
 C          0.149 -0.037  0.127   -0.008 -0.013 -0.065    0.154 -0.062  0.056
 C          0.064  0.027  0.017    0.172  0.036 -0.099   -0.096 -0.006  0.079
 C         -0.027  0.029 -0.023   -0.154  0.034  0.101   -0.108  0.015  0.068
 C         -0.194  0.001 -0.138   -0.010 -0.031  0.053    0.126  0.027  0.040
 C          0.113 -0.079  0.160   -0.002 -0.024  0.005    0.019  0.039  0.008
 C         -0.018  0.015  0.033    0.039  0.002 -0.042   -0.099  0.106  0.202
 C         -0.121 -0.056 -0.188    0.009  0.024  0.021   -0.035 -0.001 -0.043
 C          0.010 -0.001 -0.013    0.030 -0.004 -0.030    0.107  0.081 -0.151
 C          0.010 -0.001 -0.013   -0.030  0.004  0.030   -0.107 -0.081  0.151
 C         -0.121 -0.056 -0.188   -0.009 -0.024 -0.021    0.035  0.001  0.043
 C         -0.018  0.015  0.033   -0.039 -0.002  0.042    0.099 -0.106 -0.202
 C          0.113 -0.079  0.160    0.002  0.024 -0.005   -0.019 -0.039 -0.008
 C          0.067  0.003  0.017    0.027 -0.035  0.025    0.064  0.068 -0.025
 C         -0.024 -0.031 -0.043    0.033  0.024  0.034   -0.042  0.060  0.035
 C          0.001 -0.004  0.002   -0.125  0.140 -0.040   -0.009 -0.081  0.054
 C         -0.025  0.001  0.009   -0.142 -0.102 -0.064   -0.046 -0.105 -0.101
 C         -0.025  0.001  0.009    0.142  0.102  0.064    0.046  0.105  0.101
 C          0.001 -0.004  0.002    0.125 -0.140  0.040    0.009  0.081 -0.054
 C         -0.024 -0.031 -0.043   -0.033 -0.024 -0.034    0.042 -0.060 -0.035
 C          0.067  0.003  0.017   -0.027  0.035 -0.025   -0.064 -0.068  0.025
 C          0.168  0.047  0.163   -0.011 -0.027  0.054    0.112  0.057  0.054
 C          0.024 -0.032  0.021   -0.129  0.071  0.122   -0.087  0.040  0.081
 C         -0.058 -0.039 -0.014    0.149  0.084 -0.111   -0.079 -0.032  0.085
 C         -0.120  0.075 -0.137   -0.004 -0.006 -0.067    0.128 -0.099  0.065
 C         -0.120  0.075 -0.137    0.004  0.006  0.067   -0.128  0.099 -0.065
 C         -0.058 -0.039 -0.014   -0.149 -0.084  0.111    0.079  0.032 -0.085
 C          0.024 -0.032  0.021    0.129 -0.071 -0.122    0.087 -0.040 -0.081
 C          0.168  0.047  0.163    0.011  0.027 -0.054   -0.112 -0.057 -0.054
 TransDip   0.000  0.001  0.000    0.000  0.000  0.000    0.000  0.000  0.000

 Mode:               172                    173                    174
 Frequency:      1597.62                1598.91                1599.62
 Force Cnst:     18.0460                18.0750                18.0912
 Red. Mass:      12.0000                12.0000                12.0000
 IR Active:          NO                     NO                     NO 
 IR Intens:        0.000                  0.000                  0.000
 Raman Active:       YES                    YES                    YES
               X      Y      Z        X      Y      Z        X      Y      Z
 C         -0.050 -0.245 -0.010   -0.014 -0.040 -0.046   -0.002 -0.022  0.024
 C         -0.016  0.250  0.011    0.001  0.039  0.047   -0.004  0.023 -0.022
 C          0.016 -0.250 -0.011   -0.001 -0.039 -0.047    0.004 -0.023  0.022
 C          0.050  0.245  0.010    0.014  0.040  0.046    0.002  0.022 -0.024
 C         -0.204  0.020 -0.027    0.030  0.055  0.007    0.106 -0.037  0.006
 C          0.203 -0.014 -0.030   -0.031 -0.055 -0.001   -0.107  0.033  0.023
 C         -0.203  0.014  0.030    0.031  0.055  0.001    0.107 -0.033 -0.023
 C          0.204 -0.020  0.027   -0.030 -0.055 -0.007   -0.106  0.037 -0.006
 C          0.006 -0.008  0.038    0.033 -0.023  0.068    0.056 -0.035  0.124
 C         -0.007 -0.001 -0.040   -0.033  0.005 -0.068   -0.059  0.000 -0.129
 C          0.007  0.001  0.040    0.033 -0.005  0.068    0.059  0.000  0.129
 C         -0.006  0.008 -0.038   -0.033  0.023 -0.068   -0.056  0.035 -0.124
 C         -0.009  0.127 -0.118    0.031 -0.101  0.155   -0.054  0.030 -0.121
 C          0.021  0.084  0.060    0.002 -0.013 -0.033    0.016  0.021 -0.006
 C          0.002 -0.090 -0.078   -0.071 -0.048 -0.223    0.008  0.060  0.093
 C         -0.021 -0.131  0.118    0.006 -0.060  0.031    0.007  0.012 -0.023
 C          0.021  0.131 -0.118   -0.006  0.060 -0.031   -0.007 -0.012  0.023
 C         -0.002  0.090  0.078    0.071  0.048  0.223   -0.008 -0.060 -0.093
 C         -0.021 -0.084 -0.060   -0.002  0.013  0.033   -0.016 -0.021  0.006
 C          0.009 -0.127  0.118   -0.031  0.101 -0.155    0.054 -0.030  0.121
 C          0.045  0.060 -0.010   -0.081 -0.200  0.038   -0.110 -0.086 -0.016
 C          0.054 -0.064 -0.015   -0.039 -0.037 -0.045   -0.102  0.220  0.075
 C         -0.047  0.094 -0.012   -0.042  0.151 -0.022    0.017  0.022 -0.011
 C         -0.068 -0.060 -0.013    0.028  0.039  0.013   -0.034 -0.103 -0.047
 C          0.068  0.060  0.013   -0.028 -0.039 -0.013    0.034  0.103  0.047
 C          0.047 -0.094  0.012    0.042 -0.151  0.022   -0.017 -0.022  0.011
 C         -0.054  0.064  0.015    0.039  0.037  0.045    0.102 -0.220 -0.075
 C         -0.045 -0.060  0.010    0.081  0.200 -0.038    0.110  0.086  0.016
 C         -0.079  0.013 -0.072   -0.031 -0.026  0.012   -0.199 -0.019 -0.108
 C          0.052  0.013 -0.064   -0.123  0.061  0.016   -0.005  0.016 -0.026
 C          0.025  0.018  0.028   -0.058 -0.013  0.030    0.120  0.041  0.003
 C         -0.002  0.013  0.034    0.149 -0.043  0.098    0.113 -0.056  0.029
 C          0.002 -0.013 -0.034   -0.149  0.043 -0.098   -0.113  0.056 -0.029
 C         -0.025 -0.018 -0.028    0.058  0.013 -0.030   -0.120 -0.041 -0.003
 C         -0.052 -0.013  0.064    0.123 -0.061 -0.016    0.005 -0.016  0.026
 C          0.079 -0.013  0.072    0.031  0.026 -0.012    0.199  0.019  0.108
 C          0.044 -0.143  0.095   -0.069  0.115 -0.127    0.080 -0.041  0.104
 C         -0.004 -0.094 -0.050   -0.010  0.017  0.027   -0.018 -0.019  0.006
 C          0.020  0.099  0.066    0.122  0.066  0.193   -0.028 -0.069 -0.078
 C          0.060  0.140 -0.095    0.007  0.060 -0.023   -0.014 -0.013  0.019
 C         -0.060 -0.140  0.095   -0.007 -0.060  0.023    0.014  0.013 -0.019
 C         -0.020 -0.099 -0.066   -0.122 -0.066 -0.193    0.028  0.069  0.078
 C          0.004  0.094  0.050    0.010 -0.017 -0.027    0.018  0.019 -0.006
 C         -0.044  0.143 -0.095    0.069 -0.115  0.127   -0.080  0.041 -0.104
 C         -0.051 -0.053  0.028    0.097  0.177 -0.088    0.117  0.072 -0.014
 C         -0.060  0.052  0.031    0.036  0.033  0.052    0.125 -0.181 -0.126
 C          0.058 -0.086  0.037    0.057 -0.136  0.058   -0.016 -0.020  0.015
 C          0.074  0.047  0.032   -0.033 -0.031 -0.022    0.040  0.084  0.069
 C         -0.074 -0.047 -0.032    0.033  0.031  0.022   -0.040 -0.084 -0.069
 C         -0.058  0.086 -0.037   -0.057  0.136 -0.058    0.016  0.020 -0.015
 C          0.060 -0.052 -0.031   -0.036 -0.033 -0.052   -0.125  0.181  0.126
 C          0.051  0.053 -0.028   -0.097 -0.177  0.088   -0.117 -0.072  0.014
 C          0.067  0.009  0.084    0.029  0.030 -0.008    0.175  0.066  0.133
 C         -0.040  0.002  0.072    0.103 -0.085 -0.031    0.005 -0.014  0.026
 C         -0.024 -0.020 -0.028    0.050  0.030 -0.034   -0.105 -0.066  0.003
 C          0.005 -0.013 -0.037   -0.121  0.079 -0.108   -0.095  0.082 -0.037
 C         -0.005  0.013  0.037    0.121 -0.079  0.108    0.095 -0.082  0.037
 C          0.024  0.020  0.028   -0.050 -0.030  0.034    0.105  0.066 -0.003
 C          0.040 -0.002 -0.072   -0.103  0.085  0.031   -0.005  0.014 -0.026
 C         -0.067 -0.009 -0.084   -0.029 -0.030  0.008   -0.175 -0.066 -0.133
 TransDip   0.000  0.000  0.000    0.000  0.000  0.000    0.000  0.000  0.000

 STANDARD THERMODYNAMIC QUANTITIES AT   298.15 K  AND     1.00 ATM

   This Molecule has  0 Imaginary Frequencies
   Zero point vibrational energy:      231.950 kcal/mol

   Atom    1 Element C  Has Mass   12.00000
   Atom    2 Element C  Has Mass   12.00000
   Atom    3 Element C  Has Mass   12.00000
   Atom    4 Element C  Has Mass   12.00000
   Atom    5 Element C  Has Mass   12.00000
   Atom    6 Element C  Has Mass   12.00000
   Atom    7 Element C  Has Mass   12.00000
   Atom    8 Element C  Has Mass   12.00000
   Atom    9 Element C  Has Mass   12.00000
   Atom   10 Element C  Has Mass   12.00000
   Atom   11 Element C  Has Mass   12.00000
   Atom   12 Element C  Has Mass   12.00000
   Atom   13 Element C  Has Mass   12.00000
   Atom   14 Element C  Has Mass   12.00000
   Atom   15 Element C  Has Mass   12.00000
   Atom   16 Element C  Has Mass   12.00000
   Atom   17 Element C  Has Mass   12.00000
   Atom   18 Element C  Has Mass   12.00000
   Atom   19 Element C  Has Mass   12.00000
   Atom   20 Element C  Has Mass   12.00000
   Atom   21 Element C  Has Mass   12.00000
   Atom   22 Element C  Has Mass   12.00000
   Atom   23 Element C  Has Mass   12.00000
   Atom   24 Element C  Has Mass   12.00000
   Atom   25 Element C  Has Mass   12.00000
   Atom   26 Element C  Has Mass   12.00000
   Atom   27 Element C  Has Mass   12.00000
   Atom   28 Element C  Has Mass   12.00000
   Atom   29 Element C  Has Mass   12.00000
   Atom   30 Element C  Has Mass   12.00000
   Atom   31 Element C  Has Mass   12.00000
   Atom   32 Element C  Has Mass   12.00000
   Atom   33 Element C  Has Mass   12.00000
   Atom   34 Element C  Has Mass   12.00000
   Atom   35 Element C  Has Mass   12.00000
   Atom   36 Element C  Has Mass   12.00000
   Atom   37 Element C  Has Mass   12.00000
   Atom   38 Element C  Has Mass   12.00000
   Atom   39 Element C  Has Mass   12.00000
   Atom   40 Element C  Has Mass   12.00000
   Atom   41 Element C  Has Mass   12.00000
   Atom   42 Element C  Has Mass   12.00000
   Atom   43 Element C  Has Mass   12.00000
   Atom   44 Element C  Has Mass   12.00000
   Atom   45 Element C  Has Mass   12.00000
   Atom   46 Element C  Has Mass   12.00000
   Atom   47 Element C  Has Mass   12.00000
   Atom   48 Element C  Has Mass   12.00000
   Atom   49 Element C  Has Mass   12.00000
   Atom   50 Element C  Has Mass   12.00000
   Atom   51 Element C  Has Mass   12.00000
   Atom   52 Element C  Has Mass   12.00000
   Atom   53 Element C  Has Mass   12.00000
   Atom   54 Element C  Has Mass   12.00000
   Atom   55 Element C  Has Mass   12.00000
   Atom   56 Element C  Has Mass   12.00000
   Atom   57 Element C  Has Mass   12.00000
   Atom   58 Element C  Has Mass   12.00000
   Atom   59 Element C  Has Mass   12.00000
   Atom   60 Element C  Has Mass   12.00000
   Molecular Mass:   720.000000 amu
   Principal axes and moments of inertia in amu*Bohr^2:
                             1           2           3
    Eigenvalues --    21618.60123 21618.60137 21618.60159
          X               0.99999    -0.00506    -0.00030
          Y               0.00506     0.99986    -0.01591
          Z               0.00038     0.01591     0.99987
   Rotational Symmetry Number is   2
   The Molecule is an Asymmetric Top
   Translational Enthalpy:        0.889 kcal/mol
   Rotational Enthalpy:           0.889 kcal/mol
   Vibrational Enthalpy:        243.492 kcal/mol
   gas constant (RT):             0.592 kcal/mol
   Translational Entropy:        45.602  cal/mol.K
   Rotational Entropy:           36.178  cal/mol.K
   Vibrational Entropy:          54.471  cal/mol.K

   Total Enthalpy:              245.862 kcal/mol
   Total Entropy:               136.251  cal/mol.K
Archival summary:
1\1\o0321.ten.osc.edu\FREQ\ProcedureUnspecified\BasisUnspecified\60\cc20\SatJun2004:38:402020SatJun2004:38:402020\0\\#,FREQ,ProcedureUnspecified,BasisUnspecified,\\0,1\C\C,1,1.39607\C,1,1.45392,2,120.015\C,3,1.39607,1,119.985,2,0.0059991,0\C,2,1.45392,1,119.985,3,-0.00592229,0\C,5,1.39607,2,120.015,1,0.00600376,0\C,3,1.454,1,108.011,2,-142.64,0\C,7,1.39619,3,119.993,1,142.616,0\C,7,1.454,3,107.988,1,0.0310969,0\C,9,1.39607,7,120.016,3,142.601,0\C,9,1.45392,7,108.011,3,-0.031097,0\C,11,1.39607,9,120.015,7,142.64,0\C,12,1.45392,11,119.985,9,0.00592223,0\C,13,1.39607,12,120.015,11,-0.00600392,0\C,8,1.454,7,119.993,3,-138.146,0\C,15,1.39607,8,120.016,7,-0.0162726,0\C,15,1.45392,8,108.011,7,142.616,0\C,17,1.39607,15,120.015,8,-142.64,0\C,18,1.45392,17,119.985,15,-0.00592204,0\C,19,1.39607,18,120.015,17,0.00600375,0\C,8,1.454,7,119.993,3,0,0\C,21,1.39607,8,120.016,7,0.016273,0\C,21,1.45392,8,108.011,7,-142.616,0\C,23,1.39607,21,120.015,8,142.64,0\C,24,1.45392,23,119.985,21,0.0059225,0\C,25,1.39607,24,120.015,23,-0.00600407,0\C,18,1.454,17,120.016,15,138.206,0\C,27,1.39619,18,119.993,17,-0.016276,0\C,27,1.454,18,107.988,17,-142.601,0\C,29,1.39607,27,120.016,18,142.601,0\C,30,1.45392,29,120.015,27,-138.206,0\C,31,1.39607,30,119.985,29,-0.00599899,0\C,29,1.45392,27,108.011,18,-0.0311237,0\C,33,1.39607,29,120.015,27,142.64,0\C,31,1.454,30,108.011,29,142.64,0\C,35,1.39619,31,119.993,30,-142.616,0\C,35,1.454,31,107.988,30,-0.0310969,0\C,37,1.39607,35,120.016,31,-142.601,0\C,37,1.45392,35,108.011,31,0.0310972,0\C,39,1.39607,37,120.015,35,-142.64,0\C,40,1.45392,39,119.985,37,-0.00592236,0\C,41,1.39607,40,120.015,39,0.00600394,0\C,36,1.454,35,119.993,31,0,0\C,43,1.39607,36,120.016,35,-0.016273,0\C,43,1.45392,36,108.011,35,142.616,0\C,45,1.39607,43,120.015,36,-142.64,0\C,46,1.45392,45,119.985,43,-0.00592244,0\C,47,1.39607,46,120.015,45,0.006004,0\C,36,1.454,35,119.993,31,138.146,0\C,49,1.39607,36,120.016,35,0.0162726,0\C,49,1.45392,36,108.011,35,-142.616,0\C,51,1.39607,49,120.015,36,142.64,0\C,52,1.45392,51,119.985,49,0.00592189,0\C,53,1.39607,52,120.015,51,-0.00600351,0\C,52,1.454,51,120.016,49,-138.206,0\C,55,1.39619,52,119.993,51,0.0162759,0\C,48,1.454,47,120.016,46,138.206,0\C,57,1.39619,48,119.993,47,-0.0162774,0\C,26,1.454,25,120.016,24,-138.206,0\C,59,1.39619,26,119.993,25,0.0162774,0\\\@

 Total job time:  39539.22s(wall), 39802.27s(cpu) 
 Sat Jun 20 04:38:40 2020

        *************************************************************
        *                                                           *
        *  Thank you very much for using Q-Chem.  Have a nice day.  *
        *                                                           *
        *************************************************************


