
Running Job 1 of 1 freq.in
qchem freq.in_14434.0 /tmp/slurmtmp.20621236/scratch/freq/ 1
/usr/local/qchem/4.4.1-openmp/exe/qcprog.exe_s freq.in_14434.0 /tmp/slurmtmp.20621236/scratch/freq/
Check license passed

                  Welcome to Q-Chem
     A Quantum Leap Into The Future Of Chemistry


 Q-Chem 4.4, Q-Chem, Inc., Pleasanton, CA (2016)

 Y. Shao,  Z. Gan,  E. Epifanovsky,  A. T. B. Gilbert,  M. Wormit,  
 J. Kussmann,  A. W. Lange,  A. Behn,  J. Deng,  X. Feng,  D. Ghosh,  
 M. Goldey,  P. R. Horn,  L. D. Jacobson,  I. Kaliman,  F.Rob,  
 R. Z. Khaliullin,  T. Kus,  A. Landau,  J. Liu,  E. I. Proynov,  Y. M. Rhee,  
 R. M. Richard,  M. A. Rohrdanz,  R. P. Steele,  E. J. Sundstrom,  
 H. L. Woodcock III,  P. M. Zimmerman,  D. Zuev,  B. Albrecht,  E. Alguire,  
 B. Austin,  S. A. Baeppler,  G. J. O. Beran,  Y. A. Bernard,  E. Berquist,  
 K. Brandhorst,  K. B. Bravaya,  S. T. Brown,  D. Casanova,  C.-M. Chang,  
 Y. Chen,  S. H. Chien,  K. D. Closser,  M. P. Coons,  D. L. Crittenden,  
 S. Dasgupta,  M. Diedenhofen,  R. A. DiStasio Jr.,  H. Do,  A. D. Dutoi,  
 R. G. Edgar,  P.-T. Fang,  S. Fatehi,  Q. Feng,  L. Fusti-Molnar,  
 A. Ghysels,  A. Golubeva-Zadorozhnaya,  J. Gomes,  A. Gunina,  
 M. W. D. Hanson-Heine,  P. H. P. Harbach,  A. W. Hauser,  E. G. Hohenstein,  
 Z. C. Holden,  K. Hui,  T.-C. Jagau,  H. Ji,  B. Kaduk,  K. Khistyaev,  
 Jaehoon Kim,  Jihan Kim,  R. A. King,  P. Klunzinger,  D. Kosenkov,  
 T. Kowalczyk,  C. M. Krauter,  A. Kunitsa,  K. U. Lao,  A. Laurent,  
 K. V. Lawler,  D. Lefrancois,  S. Lehtola,  S. V. Levchenko,  C. Y. Lin,  
 Y.-S. Lin,  F. Liu,  E. Livshits,  R. C. Lochan,  A. Luenser,  P. Manohar,  
 S. F. Manzer,  S.-P. Mao,  Y. Mao,  N. Mardirossian,  A. V. Marenich,  
 L. A. Martinez-Martinez,  S. A. Maurer,  N. J. Mayhall,  J.-M. Mewes,  
 A. F. Morrison,  K. Nanda,  C. M. Oana,  R. Olivares-Amaya,  D. P. O'Neill,  
 J. A. Parkhill,  T. M. Perrine,  R. Peverati,  P. A. Pieniazek,  F. Plasser,  
 A. Prociuk,  D. R. Rehn,  E. Rosta,  N. J. Russ,  N. Sergueev,  
 S. M. Sharada,  S. Sharma,  D. W. Small,  A. Sodt,  T. Stauch,  T. Stein,  
 D. Stuck,  Y.-C. Su,  A. J. W. Thom,  T. Tsuchimochi,  L. Vogt,  O. Vydrov,  
 T. Wang,  M. A. Watson,  J. Wenzel,  A. White,  C. F. Williams,  
 V. Vanovschi,  S. Yeganeh,  S. R. Yost,  Z.-Q. You,  I. Y. Zhang,  X. Zhang,  
 Y. Zhao,  B. R. Brooks,  G. K. L. Chan,  D. M. Chipman,  C. J. Cramer,  
 W. A. Goddard III,  M. S. Gordon,  W. J. Hehre,  A. Klamt,  
 H. F. Schaefer III,  M. W. Schmidt,  C. D. Sherrill,  D. G. Truhlar,  
 A. Warshel,  X. Xu,  A. Aspuru-Guzik,  R. Baer,  A. T. Bell,  N. A. Besley,  
 J.-D. Chai,  A. Dreuw,  B. D. Dunietz,  T. R. Furlani,  S. R. Gwaltney,  
 C.-P. Hsu,  Y. Jung,  J. Kong,  D. S. Lambrecht,  W. Liang,  C. Ochsenfeld,  
 V. A. Rassolov,  L. V. Slipchenko,  J. E. Subotnik,  T. Van Voorhis,  
 J. M. Herbert,  A. I. Krylov,  P. M. W. Gill,  M. Head-Gordon

 Contributors to earlier versions of Q-Chem not listed above: 
 R. D. Adamson,  J. Baker,  E. F. C. Byrd,  A. K. Chakraborty,  C.-L. Cheng,  
 H. Dachsel,  R. J. Doerksen,  G. Hawkins,  A. Heyden,  S. Hirata,  
 G. Kedziora,  F. J. Keil,  C. Kelley,  P. P. Korambath,  W. Kurlancheek,  
 A. M. Lee,  M. S. Lee,  D. Liotard,  I. Lotan,  P. E. Maslen,  N. Nair,  
 D. Neuhauser,  R. Olson,  B. Peters,  J. Ritchie,  N. E. Schultz,  
 N. Shenvi,  A. C. Simmonett,  K. S. Thanthiriwatte,  Q. Wu,  W. Zhang

 Please cite Q-Chem as follows:
 Y. Shao et al., Mol. Phys. 113, 184-215 (2015)
 DOI: 10.1080/00268976.2014.952696

 Q-Chem 4.4.1 for Intel X86 Linux

 Parts of Q-Chem use Armadillo 5.200.1 (Boston Tea Smuggler).
 http://arma.sourceforge.net/

 Q-Chem begins on Thu Sep 15 10:00:36 2022  

Host: 
0

     Scratch files written to /tmp/slurmtmp.20621236/scratch/freq//
 Oct2916 21813_ 22044  22042 3297   
Processing $rem in /usr/local/qchem/4.4.1-openmp/config/preferences.
 MEM_TOTAL  4000 

Checking the input file for inconsistencies... 	...done.

--------------------------------------------------------------
User input:
--------------------------------------------------------------
$molecule
0 1
H 4.7021589417999996 -1.6558741992999999 -1.38214085139999998
C 4.16374833660000032 -0.930602816099999952 -0.777567958500000045
C 4.86708065769999987 -0.00558839830000000017 -0.00606311999999999997
H 5.95419013740000036 -0.0101692637999999998 -0.00945571090000000072
C 4.17608785609999966 0.925239356700000015 0.769807213799999945
H 4.72454423000000023 1.64584296259999996 1.37095643569999992
C 2.77976312050000018 0.931450048500000016 0.775058500300000008
H 2.24931526939999982 1.65947881930000007 1.38360142199999991
H 2.22720198330000008 -1.6488276423999999 -1.37882045129999997
C 2.76758720290000015 -0.925106054400000044 -0.773839641599999961
C -0.78225633750000001 0.0063567023000000002 0.00607326030000000013
C -1.47620996929999992 -1.18337791390000002 0.230386711500000008
C -2.86832142190000017 -1.1753556637 0.2229723713
C -3.57977878609999989 -0.00495508460000000043 -0.00234798670000000006
C -2.8762496917 1.17128144509999998 -0.222883332500000003
C -1.48409223430000003 1.1906306016999999 -0.221759126000000001
F -3.54885696289999997 2.30872633380000014 -0.441449606200000011
F -3.53291179949999989 -2.31849185299999982 0.436438523999999994
H -0.950086991199999953 -2.11611750229999984 0.410586529799999989
H -4.66313936259999995 -0.00945193910000000082 -0.0063012462
H -0.964472309599999966 2.12741536789999985 -0.399784810099999999
C 2.07563340640000016 0.00600317039999999965 0.00283283890000000016
C 0.646375687799999987 0.00995678480000000005 0.00674000619999999984
$end


$rem
jobtype               Freq
exchange              HF
correlation           none
omega		      140
omega2                140
HF_SR		      200
HF_LR	   	      250
basis                 6-31++G(d,p)
scf_convergence       8
geom_opt_maxcyc       500
max_scf_cycles        5000
mem_static            4000
mem_total             54000
molden_format         false
print_general_basis   false
$end

--------------------------------------------------------------
 ----------------------------------------------------------------
             Standard Nuclear Orientation (Angstroms)
    I     Atom           X                Y                Z
 ----------------------------------------------------------------
    1      H       4.7021589418    -1.6558741993    -1.3821408514
    2      C       4.1637483366    -0.9306028161    -0.7775679585
    3      C       4.8670806577    -0.0055883983    -0.0060631200
    4      H       5.9541901374    -0.0101692638    -0.0094557109
    5      C       4.1760878561     0.9252393567     0.7698072138
    6      H       4.7245442300     1.6458429626     1.3709564357
    7      C       2.7797631205     0.9314500485     0.7750585003
    8      H       2.2493152694     1.6594788193     1.3836014220
    9      H       2.2272019833    -1.6488276424    -1.3788204513
   10      C       2.7675872029    -0.9251060544    -0.7738396416
   11      C      -0.7822563375     0.0063567023     0.0060732603
   12      C      -1.4762099693    -1.1833779139     0.2303867115
   13      C      -2.8683214219    -1.1753556637     0.2229723713
   14      C      -3.5797787861    -0.0049550846    -0.0023479867
   15      C      -2.8762496917     1.1712814451    -0.2228833325
   16      C      -1.4840922343     1.1906306017    -0.2217591260
   17      F      -3.5488569629     2.3087263338    -0.4414496062
   18      F      -3.5329117995    -2.3184918530     0.4364385240
   19      H      -0.9500869912    -2.1161175023     0.4105865298
   20      H      -4.6631393626    -0.0094519391    -0.0063012462
   21      H      -0.9644723096     2.1274153679    -0.3997848101
   22      C       2.0756334064     0.0060031704     0.0028328389
   23      C       0.6463756878     0.0099567848     0.0067400062
 ----------------------------------------------------------------
 Molecular Point Group                 C1    NOp =  1
 Largest Abelian Subgroup              C1    NOp =  1
 Nuclear Repulsion Energy =   836.7207618452 hartrees
 There are       52 alpha and       52 beta electrons
 Requested basis set is 6-31++G(d,p)
 There are 107 shells and 333 basis functions

 Total QAlloc Memory Limit  54000 MB
 Mega-Array Size      3911 MB
 MEM_STATIC part      4000 MB
 A cutoff of  1.0D-11 yielded   4475 shell pairs
 There are     44431 function pairs
 
 -------------------------------------------------------
 OpenMP Integral Computing Module                       
 Release: version 1.0, May 2013, Q-Chem Inc. Pittsburgh 
 -------------------------------------------------------
 Integral Job Info:
 Integral job number is                      11
 Integral operator is                         1
 short-range coefficients                     0
 long-range coefficients              100000000
 Omega coefficients                         140
 if combine SR and LR in K                    0
 Integral screening is                        0
 Integral computing path is                   2
 max size of driver memory is            800000
 size of driver memory is                593474
 size of scratch memory is              2260544
 max col of scratch BK array               1296
 max len of scratch array in speh3          155
 max len of scratch index in speh4           18
 max int batch size is                      520
 min int batch size is                       52
 fixed nKL is                                52
 max L of basis functions is                  2
 order of int derivative is                   0
 number of shells is                        107
 number of basis is                         333
 number of cartesian basis is               333
 number of contracted shell pairs          4475
 number of primitive shell pairs          12868
 maxK2 (contraction) of shell pair           36
 max number of K2 of shell pair               1
 max number of CS2 of shell pair            506
 max number of PS2 of shell pair           2604
 mem total for path MDJ                   98168
 -------------------------------------------------------
 Smallest overlap matrix eigenvalue = 4.06E-08

 Q-Chem warning in module /home/scratch/svnadmin/21813_zgan/qchem/stvman/mkSTV.C, line 257:

 Overlap eigenvalue is smaller than square root of threshold

 Linear dependence detected in AO basis
 Number of orthogonalized atomic orbitals = 331
 Maximum deviation from orthogonality = 1.978E-10
 Guess from superposition of atomic densities
 Warning:  Energy on first SCF cycle will be non-variational
 A restricted Hartree-Fock SCF calculation will be
 performed using Pulay DIIS extrapolation
 SCF converges when DIIS error is below 1.0E-08
 using 12 threads for integral computing 
 ---------------------------------------
  Cycle       Energy         DIIS Error
 ---------------------------------------
    1    -701.5322138626      3.95E-02
    2    -695.4662658161      3.41E-03
    3    -695.6513994059      1.58E-03
    4    -695.6845855758      5.49E-04
    5    -695.6910291494      1.61E-04
    6    -695.6917729747      6.14E-05
    7    -695.6920341033      3.60E-05
    8    -695.6921730403      2.53E-05
    9    -695.6922667895      2.35E-05
   10    -695.6923706993      2.34E-05
   11    -695.6924943641      2.34E-05
   12    -695.6926272656      2.33E-05
   13    -695.6936274658      2.71E-05
   14    -695.6933660499      2.29E-05
   15    -695.6943495681      2.99E-05
   16    -695.6952536212      3.05E-05
   17    -695.6957402832      4.84E-05
   18    -695.6957754885      4.49E-05
   19    -695.6960368486      8.85E-05
   20    -695.6962153849      5.74E-05
   21    -695.6954204445      1.93E-04
   22    -695.6952476412      2.06E-04
   23    -695.6960236256      1.36E-04
   24    -695.6961752767      1.18E-04
   25    -695.6962198344      1.12E-04
   26    -695.6963038369      9.98E-05
   27    -695.6965708424      4.57E-05
   28    -695.6966442629      3.01E-06
   29    -695.6966448232      1.13E-06
   30    -695.6966448147      1.16E-06
   31    -695.6966448410      9.02E-07
   32    -695.6966448687      2.13E-07
   33    -695.6966448700      1.09E-07
   34    -695.6966448705      3.61E-09 Convergence criterion met
 ---------------------------------------
 SCF time:  CPU 431.35 s  wall 36.93 s
 SCF   energy in the final basis set = -695.6966448705
 Total energy in the final basis set = -695.6966448705
 
 --------------------------------------------------------------
 
                    Orbital Energies (a.u.)
 --------------------------------------------------------------
 
 Alpha MOs
 -- Occupied --
-26.328 -26.328 -11.344 -11.344 -11.299 -11.288 -11.284 -11.280
-11.280 -11.280 -11.267 -11.267 -11.235 -11.235 -11.228  -1.635
 -1.634  -1.194  -1.174  -1.082  -1.049  -1.049  -1.024  -0.925
 -0.869  -0.861  -0.858  -0.803  -0.758  -0.737  -0.711  -0.699
 -0.692  -0.685  -0.684  -0.673  -0.662  -0.645  -0.620  -0.619
 -0.584  -0.543  -0.542  -0.541  -0.531  -0.524  -0.516  -0.414
 -0.374  -0.365  -0.342  -0.255
 -- Virtual --
  0.017   0.030   0.042   0.047   0.061   0.061   0.070   0.071
  0.086   0.091   0.104   0.110   0.117   0.121   0.125   0.126
  0.135   0.143   0.145   0.155   0.160   0.166   0.168   0.169
  0.185   0.186   0.186   0.189   0.190   0.201   0.201   0.204
  0.206   0.211   0.215   0.218   0.221   0.226   0.227   0.233
  0.236   0.239   0.242   0.247   0.250   0.259   0.266   0.271
  0.273   0.287   0.291   0.297   0.304   0.307   0.315   0.327
  0.331   0.350   0.358   0.358   0.362   0.369   0.381   0.382
  0.391   0.404   0.417   0.424   0.433   0.442   0.446   0.461
  0.470   0.472   0.478   0.480   0.480   0.490   0.507   0.517
  0.521   0.528   0.534   0.534   0.551   0.558   0.574   0.583
  0.596   0.610   0.630   0.690   0.765   0.779   0.803   0.819
  0.835   0.864   0.887   0.917   0.928   0.928   0.945   0.948
  0.956   0.959   0.972   0.975   0.988   0.993   0.995   1.000
  1.011   1.012   1.029   1.039   1.050   1.054   1.066   1.077
  1.079   1.092   1.119   1.156   1.163   1.182   1.185   1.209
  1.213   1.215   1.232   1.254   1.256   1.270   1.300   1.306
  1.320   1.336   1.340   1.359   1.371   1.381   1.411   1.415
  1.465   1.473   1.475   1.497   1.505   1.510   1.536   1.575
  1.589   1.591   1.595   1.623   1.630   1.639   1.656   1.657
  1.659   1.660   1.671   1.687   1.713   1.785   1.877   1.961
  1.962   1.984   1.988   2.001   2.007   2.050   2.059   2.060
  2.087   2.094   2.097   2.103   2.113   2.113   2.141   2.158
  2.178   2.195   2.202   2.211   2.231   2.238   2.250   2.256
  2.257   2.265   2.278   2.279   2.280   2.307   2.330   2.368
  2.383   2.407   2.413   2.436   2.541   2.555   2.574   2.593
  2.596   2.610   2.626   2.653   2.660   2.668   2.683   2.690
  2.692   2.698   2.705   2.709   2.760   2.763   2.765   2.774
  2.808   2.836   2.841   2.848   2.889   2.908   2.912   2.916
  2.951   2.960   2.968   2.976   3.000   3.002   3.052   3.089
  3.089   3.148   3.151   3.181   3.189   3.336   3.387   3.435
  3.447   3.467   3.517   3.541   3.618   3.623   3.635   3.648
  3.702   3.769   3.814   3.828   3.853   3.897   4.185   4.281
  4.688   4.689   4.707   4.710   4.734   4.760   4.812   4.893
  4.901   4.944   5.031   5.254   5.394   6.722   6.724
 --------------------------------------------------------------
 
          Ground-State Mulliken Net Atomic Charges

     Atom                 Charge (a.u.)
  ----------------------------------------
      1 H                     0.161541
      2 C                     0.091302
      3 C                    -0.331215
      4 H                     0.148928
      5 C                     0.099871
      6 H                     0.161488
      7 C                    -0.585847
      8 H                     0.160022
      9 H                     0.159895
     10 C                    -0.597466
     11 C                     0.866993
     12 C                    -0.465790
     13 C                    -0.044191
     14 C                     0.307150
     15 C                    -0.039085
     16 C                    -0.463250
     17 F                    -0.405575
     18 F                    -0.405653
     19 H                     0.151401
     20 H                     0.190483
     21 H                     0.150938
     22 C                     0.583793
     23 C                     0.104267
  ----------------------------------------
  Sum of atomic charges =     0.000000

 -----------------------------------------------------------------
                    Cartesian Multipole Moments
 -----------------------------------------------------------------
    Charge (ESU x 10^10)
                 0.0000
    Dipole Moment (Debye)
         X       6.4125      Y      -0.0026      Z      -0.0129
       Tot       6.4125
    Quadrupole Moments (Debye-Ang)
        XX     -76.5934     XY       0.0049     YY     -88.4878
        XZ      -0.0044     YZ       4.8256     ZZ     -88.8190
    Octopole Moments (Debye-Ang^2)
       XXX      77.9107    XXY      -0.2457    XYY      18.6733
       YYY       0.1180    XXZ      -0.0444    XYZ      12.5631
       YYZ      -0.0219    XZZ     -11.1277    YZZ      -0.0931
       ZZZ      -0.1126
    Hexadecapole Moments (Debye-Ang^3)
      XXXX   -4310.9434   XXXY       1.0588   XXYY   -1042.0872
      XYYY      -0.4403   YYYY    -812.4062   XXXZ       0.1451
      XXYZ      83.0313   XYYZ       0.0503   YYYZ       6.9012
      XXZZ    -877.2288   XYZZ      -0.0074   YYZZ    -159.0600
      XZZZ       0.2466   YZZZ      -3.6767   ZZZZ    -233.0235
 -----------------------------------------------------------------
 Calculating MO derivatives via CPSCF
   1         3          69      0.398659    0.026880
   2         3          69      0.059510    0.009219
   3         3          69      0.014134    0.002954
   4         3          69      0.004496    0.001674
   5         6          66      0.002793    0.001272
   6        23          49      0.000471    0.000217
   7        55          17      0.000056    0.000032
   8        71           1      0.000004    0.000004
   9        72           0      0.000000    0.000000    Roots Converged
 Calculating analytic Hessian of the SCF energy
 Polarizability Matrix (a.u.)
            1           2           3
    1-254.1543677   0.0593664  -0.0619503
    2   0.0593664-130.1053394 -10.6908886
    3  -0.0619503 -10.6908886 -93.9256564
 
 Direct stationary perturbation theory relativistic correction:
 
 rels  =       0.232088309548
 relv  =      -1.066786905190
 rel2e =       0.447517675419
 E_rel =      -0.387180920223
 
 Hessian of the SCF Energy
            1           2           3           4           5           6
    1   0.1447602  -0.0994479  -0.0834096  -0.1429347   0.0916977   0.0777510
    2  -0.0994479   0.1907582   0.1300231   0.0913790  -0.1880376  -0.1157078
    3  -0.0834096   0.1300231   0.1426091   0.0766332  -0.1156982  -0.1449977
    4  -0.1429347   0.0913790   0.0766332   0.7161446  -0.0342358  -0.0314021
    5   0.0916977  -0.1880376  -0.1156982  -0.0342358   0.5341105   0.3027077
    6   0.0777510  -0.1157078  -0.1449977  -0.0314021   0.3027077   0.4096762
    7   0.0151223   0.0142603   0.0119881  -0.2105471  -0.1014164  -0.0874043
    8  -0.0136448  -0.0097394  -0.0117012  -0.0172327  -0.2127121  -0.1076618
    9  -0.0112262  -0.0116659  -0.0052123  -0.0142585  -0.1120036  -0.1674282
   10   0.0009001  -0.0003577  -0.0003016  -0.0110376   0.0029943   0.0026654
   11   0.0006412  -0.0012247   0.0027234  -0.0243091   0.0072262   0.0002320
   12   0.0003656   0.0027134  -0.0022534  -0.0187540   0.0009346   0.0081620
   13  -0.0016028  -0.0033549  -0.0029810   0.1079626   0.0274363   0.0292066
   14  -0.0029840   0.0011476  -0.0057239  -0.0288438  -0.0322953  -0.0359665
   15  -0.0029473  -0.0057875   0.0029098  -0.0302976  -0.0359090  -0.0167118
   16   0.0004495   0.0006404   0.0005652  -0.0015146   0.0029673   0.0029207
   17  -0.0006526  -0.0006640  -0.0005257   0.0033420   0.0010902  -0.0058381
   18  -0.0005757  -0.0005250  -0.0004502   0.0029602  -0.0057643   0.0028742
   19  -0.0013207  -0.0010048  -0.0006171  -0.0881320  -0.0304279  -0.0262249
   20  -0.0006509  -0.0002139   0.0005674  -0.0356520  -0.0177241  -0.0114636
   21  -0.0002354   0.0004916  -0.0003153  -0.0269956  -0.0079197  -0.0153843
   22   0.0001454   0.0000771   0.0000248  -0.0003444  -0.0007753  -0.0013173
   23   0.0000564  -0.0003684   0.0004354  -0.0010940  -0.0003825   0.0007060
   24   0.0002291   0.0005083  -0.0005373   0.0010344   0.0006894  -0.0022112
   25   0.0010364   0.0004254   0.0003468  -0.0086639  -0.0243552  -0.0208374
   26  -0.0004878  -0.0015015   0.0027346   0.0017947   0.0068095  -0.0003615
   27  -0.0004728   0.0027632  -0.0024824   0.0023768  -0.0006495   0.0094763
   28  -0.0107355  -0.0020703  -0.0018093  -0.3363317   0.0424441   0.0452470
   29   0.0259476   0.0052030   0.0003938  -0.0342762  -0.1342570  -0.0419667
   30   0.0217020   0.0005123   0.0050240  -0.0274584  -0.0437185  -0.1161411
   31   0.0014003  -0.0000986  -0.0004307   0.0035202  -0.0012998  -0.0017576
   32   0.0001421  -0.0001449   0.0000933   0.0005326  -0.0020173   0.0010768
   33   0.0004488   0.0000885  -0.0001049   0.0004019  -0.0015784  -0.0013869
   34  -0.0001296   0.0000971   0.0001587  -0.0000694  -0.0005177  -0.0025682
   35  -0.0004727  -0.0000352   0.0000615  -0.0010843   0.0006904   0.0026750
   36   0.0001216  -0.0000320  -0.0000379   0.0006195   0.0002640   0.0000109
   37   0.0003167  -0.0000276  -0.0001123   0.0008954   0.0001498  -0.0005439
   38   0.0000744  -0.0000048  -0.0000488   0.0001492  -0.0000457  -0.0000466
   39  -0.0006367  -0.0001820   0.0000317  -0.0020394   0.0006252   0.0066679
   40  -0.0005134  -0.0000555   0.0000906  -0.0014558   0.0003666   0.0031124
   41  -0.0000198  -0.0000033   0.0000117  -0.0000438   0.0001139  -0.0000285
   42   0.0000055   0.0000035  -0.0000038   0.0000648  -0.0000131   0.0000065
   43   0.0003335  -0.0000279  -0.0001183   0.0010552  -0.0000135  -0.0004101
   44  -0.0000377   0.0000110   0.0000147  -0.0002973  -0.0002464   0.0001735
   45   0.0005749   0.0001799  -0.0000303   0.0017055  -0.0005143  -0.0066323
   46  -0.0001564   0.0001572   0.0001095  -0.0006832  -0.0000348  -0.0032495
   47   0.0004827   0.0000511  -0.0000706   0.0012558  -0.0005417  -0.0028977
   48  -0.0001574   0.0000315   0.0000369  -0.0004510   0.0001268   0.0000159
   49   0.0001100   0.0000748   0.0000277   0.0001952  -0.0003565  -0.0020858
   50  -0.0000859  -0.0000745  -0.0000276  -0.0000504   0.0004393   0.0018728
   51  -0.0000041   0.0000070   0.0000029  -0.0000175  -0.0000543  -0.0000403
   52   0.0001045   0.0000651   0.0000398   0.0002573  -0.0003878  -0.0020114
   53   0.0000626   0.0000602   0.0000604   0.0001803  -0.0003287  -0.0018745
   54   0.0000119   0.0000019  -0.0000128   0.0000583   0.0000115   0.0000230
   55  -0.0000314  -0.0000129  -0.0000033  -0.0000925   0.0001128   0.0004213
   56  -0.0000446  -0.0000174  -0.0000034  -0.0001691   0.0001400   0.0005192
   57   0.0002572   0.0000636   0.0000049   0.0007352  -0.0003351  -0.0026884
   58   0.0000167   0.0000073   0.0000017   0.0000381  -0.0000434  -0.0002219
   59  -0.0000006  -0.0000007   0.0000010  -0.0000064   0.0000124  -0.0000022
   60  -0.0000014  -0.0000049   0.0000048   0.0000081   0.0000224   0.0000146
   61  -0.0000333  -0.0000116  -0.0000066  -0.0000648   0.0000825   0.0004109
   62   0.0000523   0.0000146   0.0000048   0.0000294  -0.0001423  -0.0005711
   63  -0.0002226  -0.0000852   0.0000165  -0.0006993   0.0001735   0.0026062
   64  -0.0043496  -0.0006808  -0.0000150  -0.0310298   0.0082232   0.0087144
   65  -0.0013511   0.0045284  -0.0032315   0.0666076   0.0331602   0.0144339
   66  -0.0018759  -0.0036575   0.0061067   0.0638563   0.0227258   0.0287956
   67  -0.0028880  -0.0000334  -0.0001811   0.0028327   0.0173898   0.0095845
   68   0.0007235   0.0002563  -0.0000943   0.0120249   0.0049375  -0.0000102
   69   0.0002974   0.0002601  -0.0003091   0.0019195  -0.0041227   0.0052929
            7           8           9          10          11          12
    1   0.0151223  -0.0136448  -0.0112262   0.0009001   0.0006412   0.0003656
    2   0.0142603  -0.0097394  -0.0116659  -0.0003577  -0.0012247   0.0027134
    3   0.0119881  -0.0117012  -0.0052123  -0.0003016   0.0027234  -0.0022534
    4  -0.2105471  -0.0172327  -0.0142585  -0.0110376  -0.0243091  -0.0187540
    5  -0.1014164  -0.2127121  -0.1120036   0.0029943   0.0072262   0.0009346
    6  -0.0874043  -0.1076618  -0.1674282   0.0026654   0.0002320   0.0081620
    7   0.8048903  -0.0003873  -0.0001035  -0.3535197   0.0011742   0.0008569
    8  -0.0003873   0.4933507   0.2601850   0.0011620  -0.0668514  -0.0114047
    9  -0.0001035   0.2601850   0.3970303   0.0008538  -0.0104055  -0.0644020
   10  -0.3535197   0.0011620   0.0008538   0.3733069  -0.0012688  -0.0009294
   11   0.0011742  -0.0668514  -0.0104055  -0.0012688   0.0561195   0.0171367
   12   0.0008569  -0.0114047  -0.0644020  -0.0009294   0.0171367   0.0498409
   13  -0.2089092   0.0164442   0.0135070  -0.0107457   0.0244441   0.0188764
   14   0.1005932  -0.2135244  -0.1125976  -0.0028384   0.0070484   0.0007983
   15   0.0866521  -0.1083380  -0.1679532  -0.0025453   0.0001145   0.0080468
   16   0.0150982   0.0133690   0.0110079   0.0008971  -0.0006400  -0.0003634
   17  -0.0145434  -0.0097390  -0.0116771   0.0003569  -0.0012222   0.0027142
   18  -0.0122127  -0.0116933  -0.0052127   0.0003053   0.0027245  -0.0022518
   19  -0.0193047   0.0897296   0.0748136   0.0001957   0.0015903   0.0032937
   20   0.0273728   0.0365836   0.0248048   0.0025996   0.0001450  -0.0068775
   21   0.0235124   0.0226767   0.0248024   0.0022159  -0.0070279   0.0028814
   22  -0.0073105  -0.0007577  -0.0006796  -0.0006213   0.0011189   0.0010251
   23  -0.0007235   0.0048571  -0.0032108  -0.0001655  -0.0001168   0.0003684
   24  -0.0017340  -0.0044146   0.0051284  -0.0000909   0.0004688  -0.0004522
   25  -0.0072790   0.0008277   0.0007297  -0.0006361  -0.0011139  -0.0010202
   26   0.0007928   0.0048522  -0.0032102   0.0001723  -0.0001100   0.0003760
   27   0.0017805  -0.0044336   0.0051101   0.0000955   0.0004758  -0.0004478
   28  -0.0208068  -0.0891212  -0.0743276   0.0001184  -0.0016267  -0.0033446
   29  -0.0267237   0.0375448   0.0255730  -0.0026465   0.0001782  -0.0068341
   30  -0.0230249   0.0234193   0.0254180  -0.0022614  -0.0070026   0.0029190
   31  -0.0006672   0.0000007   0.0000005   0.0005403  -0.0000038  -0.0000007
   32  -0.0002903   0.0002174  -0.0003423   0.0000147   0.0001616  -0.0002946
   33  -0.0000014   0.0000690   0.0000114  -0.0000002  -0.0000799   0.0000287
   34  -0.0018886  -0.0001273  -0.0001816  -0.0000751   0.0000650  -0.0000719
   35   0.0015581  -0.0000773  -0.0000414  -0.0001656  -0.0000128   0.0000061
   36  -0.0000382  -0.0001322  -0.0000535   0.0000608  -0.0000157   0.0000108
   37  -0.0002152   0.0000086   0.0000332   0.0001539  -0.0000175   0.0000315
   38  -0.0001269   0.0001003   0.0000556   0.0000443   0.0000247  -0.0000272
   39   0.0038865   0.0000918   0.0000780  -0.0001862  -0.0000037   0.0000129
   40   0.0017215  -0.0000011  -0.0000011  -0.0001753   0.0000020  -0.0000004
   41   0.0000398  -0.0000208   0.0000022  -0.0000021  -0.0000228   0.0000321
   42  -0.0000048  -0.0000340  -0.0000206  -0.0000001   0.0000057  -0.0000142
   43  -0.0002595  -0.0000107  -0.0000349   0.0001557   0.0000154  -0.0000313
   44   0.0000687   0.0000995   0.0000555  -0.0000404   0.0000253  -0.0000278
   45  -0.0038472   0.0000937   0.0000823   0.0001852  -0.0000085   0.0000148
   46  -0.0016805   0.0001220   0.0001786  -0.0000853  -0.0000642   0.0000728
   47  -0.0015526  -0.0000756  -0.0000401   0.0001640  -0.0000164   0.0000070
   48   0.0000193  -0.0001291  -0.0000553  -0.0000598  -0.0000155   0.0000116
   49  -0.0011580   0.0000109   0.0000257   0.0000044  -0.0000022   0.0000032
   50   0.0010447  -0.0000586  -0.0000395   0.0000111  -0.0000044   0.0000081
   51  -0.0000210  -0.0000070  -0.0000058  -0.0000085   0.0000027  -0.0000050
   52  -0.0011655  -0.0000100  -0.0000249   0.0000051   0.0000011  -0.0000027
   53  -0.0010622  -0.0000584  -0.0000396  -0.0000108  -0.0000053   0.0000085
   54   0.0000081  -0.0000073  -0.0000060   0.0000087   0.0000028  -0.0000049
   55   0.0002335  -0.0000012   0.0000113  -0.0000034   0.0000037   0.0000022
   56   0.0002915   0.0000574   0.0000422  -0.0000073   0.0000002   0.0000112
   57  -0.0015452   0.0000224  -0.0000006   0.0000639  -0.0000034  -0.0000083
   58  -0.0001256   0.0000001  -0.0000000   0.0000025  -0.0000001   0.0000000
   59  -0.0000007   0.0000011   0.0000037   0.0000001   0.0000002   0.0000024
   60  -0.0000010  -0.0000063  -0.0000095   0.0000001   0.0000007   0.0000004
   61   0.0002368   0.0000001  -0.0000127  -0.0000037  -0.0000034  -0.0000025
   62  -0.0002955   0.0000555   0.0000407   0.0000078  -0.0000003   0.0000111
   63   0.0015394   0.0000193  -0.0000017  -0.0000640  -0.0000013  -0.0000089
   64  -0.0076347  -0.0003702  -0.0003010   0.0010687  -0.0000140  -0.0000056
   65  -0.0006086  -0.0550835  -0.0384776   0.0000048  -0.0013433   0.0000105
   66  -0.0003623  -0.0460699  -0.0463675  -0.0000058  -0.0004836  -0.0012014
   67   0.0051694  -0.0000109  -0.0000091  -0.0004456   0.0000076  -0.0000005
   68   0.0005338  -0.0097788  -0.0070119  -0.0000290   0.0000011   0.0003273
   69   0.0000571  -0.0005444  -0.0009318  -0.0000013   0.0011600  -0.0008794
           13          14          15          16          17          18
    1  -0.0016028  -0.0029840  -0.0029473   0.0004495  -0.0006526  -0.0005757
    2  -0.0033549   0.0011476  -0.0057875   0.0006404  -0.0006640  -0.0005250
    3  -0.0029810  -0.0057239   0.0029098   0.0005652  -0.0005257  -0.0004502
    4   0.1079626  -0.0288438  -0.0302976  -0.0015146   0.0033420   0.0029602
    5   0.0274363  -0.0322953  -0.0359090   0.0029673   0.0010902  -0.0057643
    6   0.0292066  -0.0359665  -0.0167118   0.0029207  -0.0058381   0.0028742
    7  -0.2089092   0.1005932   0.0866521   0.0150982  -0.0145434  -0.0122127
    8   0.0164442  -0.2135244  -0.1083380   0.0133690  -0.0097390  -0.0116933
    9   0.0135070  -0.1125976  -0.1679532   0.0110079  -0.0116771  -0.0052127
   10  -0.0107457  -0.0028384  -0.0025453   0.0008971   0.0003569   0.0003053
   11   0.0244441   0.0070484   0.0001145  -0.0006400  -0.0012222   0.0027245
   12   0.0188764   0.0007983   0.0080468  -0.0003634   0.0027142  -0.0022518
   13   0.7167149   0.0347308   0.0320888  -0.1454763  -0.0924645  -0.0776087
   14   0.0347308   0.5333372   0.3020637  -0.0927935  -0.1864349  -0.1144515
   15   0.0320888   0.3020637   0.4093666  -0.0787144  -0.1144486  -0.1440129
   16  -0.1454763  -0.0927935  -0.0787144   0.1475249   0.1006233   0.0844693
   17  -0.0924645  -0.1864349  -0.1144486   0.1006233   0.1890351   0.1286661
   18  -0.0776087  -0.1144515  -0.1440129   0.0844693   0.1286661   0.1415528
   19  -0.3360414  -0.0410119  -0.0439259  -0.0110294   0.0022075   0.0019162
   20   0.0357070  -0.1342290  -0.0418876  -0.0257956   0.0053991   0.0005571
   21   0.0284959  -0.0437162  -0.1161231  -0.0215924   0.0006903   0.0051468
   22  -0.0083492   0.0244696   0.0209439   0.0010382  -0.0004296  -0.0003471
   23  -0.0016758   0.0066286  -0.0004944   0.0004850  -0.0015044   0.0027352
   24  -0.0022715  -0.0007767   0.0093238   0.0004696   0.0027618  -0.0024832
   25  -0.0003353   0.0007778   0.0012898   0.0001401  -0.0000778  -0.0000254
   26   0.0011135  -0.0003984   0.0006961  -0.0000566  -0.0003668   0.0004346
   27  -0.0010433   0.0006939  -0.0022065  -0.0002269   0.0005101  -0.0005347
   28  -0.0872823   0.0309450   0.0264555  -0.0013063   0.0010253   0.0006246
   29   0.0361157  -0.0183111  -0.0119597   0.0006573  -0.0002266   0.0005578
   30   0.0273633  -0.0083441  -0.0157500   0.0002452   0.0004849  -0.0003213
   31   0.0035144   0.0012215   0.0016698   0.0013840   0.0000878   0.0004213
   32  -0.0002598  -0.0018998   0.0020986  -0.0000424  -0.0001727   0.0001012
   33  -0.0004239  -0.0015786  -0.0013799  -0.0004454   0.0000930  -0.0001029
   34  -0.0005835   0.0000942   0.0036015  -0.0001261  -0.0001664  -0.0001053
   35  -0.0012684  -0.0005240  -0.0028690  -0.0004785   0.0000555  -0.0000696
   36   0.0004536   0.0001214   0.0000378   0.0001583   0.0000298   0.0000358
   37   0.0010256  -0.0000060   0.0003175   0.0003238   0.0000271   0.0001161
   38   0.0003340  -0.0002406   0.0002726   0.0000493   0.0000078   0.0000157
   39  -0.0017218  -0.0005139  -0.0066292  -0.0005666   0.0001874  -0.0000287
   40  -0.0014580  -0.0003478  -0.0030674  -0.0005054   0.0000604  -0.0000884
   41  -0.0000021   0.0001002  -0.0001670   0.0000050   0.0000004   0.0000105
   42  -0.0000648  -0.0000112   0.0000207  -0.0000056   0.0000031  -0.0000043
   43   0.0009158  -0.0001535   0.0006001   0.0003217   0.0000227   0.0001106
   44  -0.0001127  -0.0000362   0.0000605  -0.0000614  -0.0000071  -0.0000464
   45   0.0020307   0.0006071   0.0065354   0.0006192  -0.0001869   0.0000313
   46  -0.0001728   0.0004941   0.0022069  -0.0001665  -0.0000867  -0.0001577
   47   0.0010769   0.0006715   0.0026211   0.0004606  -0.0000392   0.0000584
   48  -0.0006049   0.0002731   0.0000509  -0.0001186  -0.0000310  -0.0000375
   49   0.0002541   0.0003851   0.0019818   0.0000986  -0.0000660  -0.0000401
   50  -0.0001778  -0.0003225  -0.0018314  -0.0000576   0.0000602   0.0000593
   51  -0.0000552   0.0000154   0.0000442  -0.0000108   0.0000013  -0.0000130
   52   0.0002040   0.0003545   0.0020805   0.0001073  -0.0000762  -0.0000273
   53   0.0000563   0.0004432   0.0018870   0.0000835  -0.0000763  -0.0000276
   54   0.0000197  -0.0000501  -0.0000180   0.0000055   0.0000062   0.0000026
   55  -0.0000654  -0.0000795  -0.0003997  -0.0000317   0.0000117   0.0000067
   56  -0.0000254  -0.0001433  -0.0005581  -0.0000504   0.0000149   0.0000050
   57   0.0007055   0.0001692   0.0025894   0.0002187  -0.0000879   0.0000162
   58   0.0000383   0.0000425   0.0002199   0.0000162  -0.0000074  -0.0000017
   59   0.0000070   0.0000125   0.0000002   0.0000008  -0.0000007   0.0000010
   60  -0.0000060   0.0000231   0.0000180   0.0000020  -0.0000049   0.0000048
   61  -0.0000955  -0.0001125  -0.0004214  -0.0000310   0.0000134   0.0000032
   62   0.0001702   0.0001374   0.0005233   0.0000444  -0.0000181  -0.0000031
   63  -0.0007358  -0.0003268  -0.0026513  -0.0002506   0.0000660   0.0000051
   64  -0.0321681  -0.0075307  -0.0082283  -0.0043335   0.0007312   0.0000567
   65  -0.0657323   0.0339210   0.0159442   0.0014989   0.0044847  -0.0032430
   66  -0.0632306   0.0233229   0.0293958   0.0019237  -0.0036778   0.0060859
   67   0.0026555  -0.0174068  -0.0095610  -0.0028789   0.0000611   0.0001995
   68  -0.0125621   0.0049120  -0.0020307  -0.0009087   0.0003244  -0.0001024
   69  -0.0020001  -0.0040309   0.0050962  -0.0003104   0.0002639  -0.0003023
           19          20          21          22          23          24
    1  -0.0013207  -0.0006509  -0.0002354   0.0001454   0.0000564   0.0002291
    2  -0.0010048  -0.0002139   0.0004916   0.0000771  -0.0003684   0.0005083
    3  -0.0006171   0.0005674  -0.0003153   0.0000248   0.0004354  -0.0005373
    4  -0.0881320  -0.0356520  -0.0269956  -0.0003444  -0.0010940   0.0010344
    5  -0.0304279  -0.0177241  -0.0079197  -0.0007753  -0.0003825   0.0006894
    6  -0.0262249  -0.0114636  -0.0153843  -0.0013173   0.0007060  -0.0022112
    7  -0.0193047   0.0273728   0.0235124  -0.0073105  -0.0007235  -0.0017340
    8   0.0897296   0.0365836   0.0226767  -0.0007577   0.0048571  -0.0044146
    9   0.0748136   0.0248048   0.0248024  -0.0006796  -0.0032108   0.0051284
   10   0.0001957   0.0025996   0.0022159  -0.0006213  -0.0001655  -0.0000909
   11   0.0015903   0.0001450  -0.0070279   0.0011189  -0.0001168   0.0004688
   12   0.0032937  -0.0068775   0.0028814   0.0010251   0.0003684  -0.0004522
   13  -0.3360414   0.0357070   0.0284959  -0.0083492  -0.0016758  -0.0022715
   14  -0.0410119  -0.1342290  -0.0437162   0.0244696   0.0066286  -0.0007767
   15  -0.0439259  -0.0418876  -0.1161231   0.0209439  -0.0004944   0.0093238
   16  -0.0110294  -0.0257956  -0.0215924   0.0010382   0.0004850   0.0004696
   17   0.0022075   0.0053991   0.0006903  -0.0004296  -0.0015044   0.0027618
   18   0.0019162   0.0005571   0.0051468  -0.0003471   0.0027352  -0.0024832
   19   0.7182715  -0.0239366  -0.0262151  -0.1403461   0.0888591   0.0811493
   20  -0.0239366   0.5502056   0.3092797   0.0936504  -0.1916872  -0.1150630
   21  -0.0262151   0.3092797   0.4331290   0.0783513  -0.1176168  -0.1510551
   22  -0.1403461   0.0936504   0.0783513   0.1442118  -0.1003341  -0.0837631
   23   0.0888591  -0.1916872  -0.1176168  -0.1003341   0.1902146   0.1304087
   24   0.0811493  -0.1150630  -0.1510551  -0.0837631   0.1304087   0.1455946
   25  -0.0010892   0.0030129   0.0018291   0.0006284   0.0005700   0.0003653
   26   0.0031519   0.0002988  -0.0053146  -0.0005884  -0.0005398  -0.0007693
   27   0.0017565  -0.0048206   0.0035832  -0.0003670  -0.0007657   0.0006020
   28   0.0904751   0.0254768   0.0198651  -0.0011368  -0.0031784  -0.0017210
   29  -0.0267416  -0.0334046  -0.0353940  -0.0030276   0.0003591  -0.0047829
   30  -0.0207702  -0.0354022  -0.0204088  -0.0018298  -0.0052768   0.0036158
   31   0.0081917   0.0008496  -0.0054593  -0.0008636  -0.0014955  -0.0010551
   32  -0.0010226   0.0009169  -0.0015911  -0.0004331   0.0002794  -0.0011806
   33  -0.0074257   0.0010850   0.0020092  -0.0005135  -0.0005541  -0.0002489
   34   0.0006556   0.0009731   0.0002240  -0.0001889   0.0005941  -0.0009352
   35  -0.0035335  -0.0002917   0.0020611   0.0003910   0.0001118   0.0009582
   36   0.0009776  -0.0006931  -0.0006542  -0.0000215  -0.0001046  -0.0000836
   37   0.0010909  -0.0003818  -0.0017454  -0.0001843  -0.0002954  -0.0001993
   38  -0.0000744   0.0000850  -0.0004700  -0.0001337   0.0000680  -0.0002246
   39  -0.0036840  -0.0005666   0.0034957   0.0007616  -0.0003677   0.0019981
   40  -0.0029058  -0.0000824   0.0027316   0.0004505   0.0000108   0.0010192
   41   0.0001693  -0.0001290   0.0001094   0.0000896  -0.0001292   0.0001235
   42  -0.0001123   0.0000117   0.0000535  -0.0000252   0.0000395  -0.0000332
   43   0.0007744  -0.0001609  -0.0018739  -0.0003822  -0.0000453  -0.0004351
   44  -0.0000700   0.0000184   0.0001428   0.0000600   0.0001176   0.0000588
   45   0.0044142   0.0004034  -0.0036775  -0.0007053   0.0002766  -0.0019244
   46   0.0004855   0.0007348   0.0013063  -0.0000876   0.0001231  -0.0005318
   47   0.0033961   0.0004679  -0.0017754  -0.0004293  -0.0001557  -0.0010187
   48   0.0003562   0.0004200   0.0004236   0.0001440   0.0000120   0.0001080
   49   0.0014632   0.0003841  -0.0003647  -0.0001307   0.0001139  -0.0005096
   50  -0.0013226  -0.0004211   0.0001799   0.0001078  -0.0001550   0.0004857
   51   0.0000168   0.0000300   0.0001105   0.0000129   0.0000117  -0.0000141
   52   0.0014817   0.0004053  -0.0004546  -0.0001422   0.0001284  -0.0005341
   53   0.0014463   0.0003810  -0.0002658  -0.0000749   0.0001043  -0.0004116
   54  -0.0001254   0.0000071  -0.0000645  -0.0000231   0.0000087  -0.0000251
   55  -0.0003872  -0.0000783   0.0000680   0.0000489  -0.0000063   0.0001267
   56  -0.0006534  -0.0001508   0.0001041   0.0000721  -0.0000287   0.0001781
   57   0.0014426   0.0002679  -0.0014050  -0.0003023   0.0001072  -0.0007717
   58   0.0001789   0.0000343  -0.0000718  -0.0000167   0.0000089  -0.0000545
   59   0.0000118  -0.0000120  -0.0000131   0.0000078  -0.0000027   0.0000160
   60   0.0000600  -0.0000030  -0.0000217  -0.0000001   0.0000108   0.0000094
   61  -0.0003667  -0.0000490   0.0001563   0.0000121   0.0000003   0.0000270
   62   0.0004738   0.0000829  -0.0002370  -0.0000085   0.0000169  -0.0000516
   63  -0.0019308  -0.0000344   0.0015684   0.0001519  -0.0000869   0.0007115
   64  -0.1568216  -0.0917726  -0.0607766   0.0111334   0.0158621   0.0076511
   65  -0.0483502  -0.2227018  -0.1192696  -0.0132596  -0.0091346  -0.0107264
   66  -0.0238557  -0.1181795  -0.1722751  -0.0115930  -0.0117237  -0.0055297
   67  -0.0655186  -0.0126405  -0.0129706   0.0024359   0.0022017   0.0017635
   68  -0.0128854   0.0063805   0.0048748   0.0002076   0.0014478   0.0027627
   69  -0.0153095  -0.0024426   0.0041813   0.0000725   0.0050815  -0.0017218
           25          26          27          28          29          30
    1   0.0010364  -0.0004878  -0.0004728  -0.0107355   0.0259476   0.0217020
    2   0.0004254  -0.0015015   0.0027632  -0.0020703   0.0052030   0.0005123
    3   0.0003468   0.0027346  -0.0024824  -0.0018093   0.0003938   0.0050240
    4  -0.0086639   0.0017947   0.0023768  -0.3363317  -0.0342762  -0.0274584
    5  -0.0243552   0.0068095  -0.0006495   0.0424441  -0.1342570  -0.0437185
    6  -0.0208374  -0.0003615   0.0094763   0.0452470  -0.0419667  -0.1161411
    7  -0.0072790   0.0007928   0.0017805  -0.0208068  -0.0267237  -0.0230249
    8   0.0008277   0.0048522  -0.0044336  -0.0891212   0.0375448   0.0234193
    9   0.0007297  -0.0032102   0.0051101  -0.0743276   0.0255730   0.0254180
   10  -0.0006361   0.0001723   0.0000955   0.0001184  -0.0026465  -0.0022614
   11  -0.0011139  -0.0001100   0.0004758  -0.0016267   0.0001782  -0.0070026
   12  -0.0010202   0.0003760  -0.0004478  -0.0033446  -0.0068341   0.0029190
   13  -0.0003353   0.0011135  -0.0010433  -0.0872823   0.0361157   0.0273633
   14   0.0007778  -0.0003984   0.0006939   0.0309450  -0.0183111  -0.0083441
   15   0.0012898   0.0006961  -0.0022065   0.0264555  -0.0119597  -0.0157500
   16   0.0001401  -0.0000566  -0.0002269  -0.0013063   0.0006573   0.0002452
   17  -0.0000778  -0.0003668   0.0005101   0.0010253  -0.0002266   0.0004849
   18  -0.0000254   0.0004346  -0.0005347   0.0006246   0.0005578  -0.0003213
   19  -0.0010892   0.0031519   0.0017565   0.0904751  -0.0267416  -0.0207702
   20   0.0030129   0.0002988  -0.0048206   0.0254768  -0.0334046  -0.0354022
   21   0.0018291  -0.0053146   0.0035832   0.0198651  -0.0353940  -0.0204088
   22   0.0006284  -0.0005884  -0.0003670  -0.0011368  -0.0030276  -0.0018298
   23   0.0005700  -0.0005398  -0.0007657  -0.0031784   0.0003591  -0.0052768
   24   0.0003653  -0.0007693   0.0006020  -0.0017210  -0.0047829   0.0036158
   25   0.1470225   0.1014932   0.0847759  -0.1429064  -0.0947842  -0.0793511
   26   0.1014932   0.1885328   0.1290265  -0.0899850  -0.1901548  -0.1163381
   27   0.0847759   0.1290265   0.1444498  -0.0822002  -0.1137208  -0.1499596
   28  -0.1429064  -0.0899850  -0.0822002   0.7193361   0.0245192   0.0268548
   29  -0.0947842  -0.1901548  -0.1137208   0.0245192   0.5495554   0.3086373
   30  -0.0793511  -0.1163381  -0.1499596   0.0268548   0.3086373   0.4325022
   31  -0.0008144   0.0014957   0.0010588   0.0085114  -0.0008350   0.0055017
   32   0.0003135   0.0002254  -0.0008890   0.0017102   0.0008224  -0.0010280
   33   0.0005066  -0.0005731  -0.0002615   0.0074089   0.0010990   0.0019925
   34  -0.0001195  -0.0001305   0.0006454   0.0007420  -0.0007675  -0.0011135
   35   0.0004125  -0.0001508  -0.0010361  -0.0035335   0.0004563  -0.0018075
   36  -0.0001485   0.0000073   0.0001153  -0.0003181   0.0004199   0.0004426
   37  -0.0003761   0.0000439   0.0004192   0.0007660   0.0001677   0.0018374
   38  -0.0000719   0.0001155   0.0000963   0.0001571   0.0000139   0.0002132
   39   0.0006873   0.0002849  -0.0019568  -0.0046196   0.0003915  -0.0037320
   40   0.0004349  -0.0000040  -0.0010274  -0.0030224   0.0000716  -0.0027503
   41  -0.0000798  -0.0001274   0.0000836  -0.0002786  -0.0001206   0.0000229
   42   0.0000257   0.0000387  -0.0000316   0.0001203   0.0000099   0.0000549
   43  -0.0001811   0.0002942   0.0002237   0.0012067   0.0003816   0.0017978
   44   0.0001240   0.0000676  -0.0001960   0.0001410   0.0000806  -0.0003991
   45  -0.0007339  -0.0003692   0.0020001   0.0038032  -0.0005406   0.0035021
   46  -0.0001524  -0.0005806   0.0008397   0.0004032  -0.0009334  -0.0004095
   47  -0.0003694   0.0001051   0.0009601   0.0036388  -0.0002869   0.0020565
   48   0.0000116  -0.0001064  -0.0000735  -0.0010027  -0.0006952  -0.0006452
   49  -0.0001331  -0.0001307   0.0005329   0.0015175  -0.0003997   0.0004513
   50   0.0000655   0.0001049  -0.0004053  -0.0014633   0.0003697  -0.0002667
   51   0.0000220   0.0000071  -0.0000201   0.0001422   0.0000034  -0.0000596
   52  -0.0001249  -0.0001166   0.0005164   0.0015132  -0.0003777   0.0003833
   53  -0.0001027  -0.0001602   0.0004954   0.0013773  -0.0004214   0.0001920
   54  -0.0000150   0.0000108  -0.0000081  -0.0000019   0.0000260   0.0001149
   55   0.0000096   0.0000002  -0.0000243  -0.0003756   0.0000459  -0.0001561
   56   0.0000047   0.0000179  -0.0000457  -0.0004819   0.0000811  -0.0002353
   57  -0.0001388  -0.0000889   0.0007164   0.0020086  -0.0000233   0.0015902
   58  -0.0000158  -0.0000093   0.0000545   0.0001847  -0.0000334   0.0000728
   59  -0.0000081  -0.0000027   0.0000172  -0.0000101  -0.0000123  -0.0000123
   60   0.0000002   0.0000113   0.0000103  -0.0000553  -0.0000033  -0.0000185
   61   0.0000479   0.0000071  -0.0001296  -0.0004067   0.0000795  -0.0000715
   62  -0.0000715  -0.0000303   0.0001825   0.0006640  -0.0001505   0.0001115
   63   0.0002924   0.0001093  -0.0007761  -0.0014978   0.0002593  -0.0014077
   64   0.0111206  -0.0160880  -0.0078125  -0.1551188   0.0904481   0.0595973
   65   0.0129305  -0.0091458  -0.0104690   0.0476956  -0.2237231  -0.1193702
   66   0.0113873  -0.0117135  -0.0055264   0.0227190  -0.1187076  -0.1725955
   67   0.0023868  -0.0021818  -0.0017719  -0.0653447   0.0131124   0.0133898
   68   0.0000768   0.0015588   0.0021270   0.0119555   0.0064051   0.0035516
   69   0.0000008   0.0051077  -0.0017786   0.0156487  -0.0027435   0.0038631
           31          32          33          34          35          36
    1   0.0014003   0.0001421   0.0004488  -0.0001296  -0.0004727   0.0001216
    2  -0.0000986  -0.0001449   0.0000885   0.0000971  -0.0000352  -0.0000320
    3  -0.0004307   0.0000933  -0.0001049   0.0001587   0.0000615  -0.0000379
    4   0.0035202   0.0005326   0.0004019  -0.0000694  -0.0010843   0.0006195
    5  -0.0012998  -0.0020173  -0.0015784  -0.0005177   0.0006904   0.0002640
    6  -0.0017576   0.0010768  -0.0013869  -0.0025682   0.0026750   0.0000109
    7  -0.0006672  -0.0002903  -0.0000014  -0.0018886   0.0015581  -0.0000382
    8   0.0000007   0.0002174   0.0000690  -0.0001273  -0.0000773  -0.0001322
    9   0.0000005  -0.0003423   0.0000114  -0.0001816  -0.0000414  -0.0000535
   10   0.0005403   0.0000147  -0.0000002  -0.0000751  -0.0001656   0.0000608
   11  -0.0000038   0.0001616  -0.0000799   0.0000650  -0.0000128  -0.0000157
   12  -0.0000007  -0.0002946   0.0000287  -0.0000719   0.0000061   0.0000108
   13   0.0035144  -0.0002598  -0.0004239  -0.0005835  -0.0012684   0.0004536
   14   0.0012215  -0.0018998  -0.0015786   0.0000942  -0.0005240   0.0001214
   15   0.0016698   0.0020986  -0.0013799   0.0036015  -0.0028690   0.0000378
   16   0.0013840  -0.0000424  -0.0004454  -0.0001261  -0.0004785   0.0001583
   17   0.0000878  -0.0001727   0.0000930  -0.0001664   0.0000555   0.0000298
   18   0.0004213   0.0001012  -0.0001029  -0.0001053  -0.0000696   0.0000358
   19   0.0081917  -0.0010226  -0.0074257   0.0006556  -0.0035335   0.0009776
   20   0.0008496   0.0009169   0.0010850   0.0009731  -0.0002917  -0.0006931
   21  -0.0054593  -0.0015911   0.0020092   0.0002240   0.0020611  -0.0006542
   22  -0.0008636  -0.0004331  -0.0005135  -0.0001889   0.0003910  -0.0000215
   23  -0.0014955   0.0002794  -0.0005541   0.0005941   0.0001118  -0.0001046
   24  -0.0010551  -0.0011806  -0.0002489  -0.0009352   0.0009582  -0.0000836
   25  -0.0008144   0.0003135   0.0005066  -0.0001195   0.0004125  -0.0001485
   26   0.0014957   0.0002254  -0.0005731  -0.0001305  -0.0001508   0.0000073
   27   0.0010588  -0.0008890  -0.0002615   0.0006454  -0.0010361   0.0001153
   28   0.0085114   0.0017102   0.0074089   0.0007420  -0.0035335  -0.0003181
   29  -0.0008350   0.0008224   0.0010990  -0.0007675   0.0004563   0.0004199
   30   0.0055017  -0.0010280   0.0019925  -0.0011135  -0.0018075   0.0004426
   31   0.6252944  -0.0008868   0.0009013  -0.1715097  -0.0847507   0.0181722
   32  -0.0008868   0.6867927  -0.1243542  -0.0466320  -0.2984147   0.0477669
   33   0.0009013  -0.1243542   0.1784796   0.0200582   0.0496411  -0.0752506
   34  -0.1715097  -0.0466320   0.0200582   0.7439039  -0.0275922   0.0040997
   35  -0.0847507  -0.2984147   0.0496411  -0.0275922   0.7642410  -0.1213408
   36   0.0181722   0.0477669  -0.0752506   0.0040997  -0.1213408   0.1519266
   37  -0.0363529  -0.1213073   0.0163774  -0.3311251   0.0750346  -0.0194992
   38  -0.0394299   0.0569091  -0.0071331  -0.0326139  -0.1537534   0.0147145
   39   0.0071136  -0.0132205  -0.0010621   0.0018709   0.0132019  -0.0766416
   40   0.0186678   0.0006821  -0.0000299  -0.0261487   0.0216268  -0.0017252
   41   0.0004477  -0.1059961   0.0143077   0.1055682   0.0450675  -0.0078057
   42  -0.0000321   0.0207836  -0.0017500  -0.0195097  -0.0060791   0.0145211
   43  -0.0374861   0.1205102  -0.0165572  -0.0857622  -0.0364137   0.0069565
   44   0.0387037   0.0581567  -0.0071196  -0.0544769  -0.0205898   0.0050027
   45  -0.0070922  -0.0136279  -0.0011272   0.0039501   0.0051605  -0.0016609
   46  -0.1722121   0.0471973  -0.0207203   0.0838504   0.0204590  -0.0028974
   47   0.0857372  -0.2981636   0.0499396  -0.0196519  -0.0399043   0.0060020
   48  -0.0190043   0.0478383  -0.0753824   0.0033994   0.0062658   0.0064837
   49  -0.0088244  -0.0103851   0.0007074   0.0038126   0.0058759  -0.0015749
   50   0.0002837   0.0016129   0.0014191   0.0061677  -0.0045270   0.0010079
   51  -0.0004710   0.0018113   0.0080688  -0.0006935   0.0007667  -0.0017778
   52  -0.0089150   0.0100287  -0.0007840  -0.0266340  -0.0568363   0.0098905
   53  -0.0003857   0.0014587   0.0014331  -0.0148356  -0.0091298   0.0026091
   54   0.0003423   0.0018795   0.0080789   0.0028333   0.0023445   0.0076536
   55   0.0152538  -0.0173871   0.0030303  -0.1417866   0.1171433  -0.0219033
   56   0.0161137  -0.0173115   0.0030048   0.1186075  -0.2761570   0.0441014
   57  -0.0065784   0.0037818   0.0017476  -0.0200776   0.0475097  -0.0469622
   58   0.0002839  -0.0000064   0.0000095   0.0006565   0.0032132  -0.0007023
   59   0.0000071  -0.0015807  -0.0002603   0.0024784  -0.0051565   0.0019358
   60   0.0000064  -0.0004185  -0.0018222   0.0007861   0.0024527   0.0042947
   61   0.0152385   0.0176620  -0.0029923  -0.0016721   0.0028164  -0.0006135
   62  -0.0158919  -0.0173269   0.0029117   0.0040203  -0.0025280   0.0019486
   63   0.0065482   0.0044421   0.0017186   0.0010727   0.0011010   0.0063661
   64  -0.0056394  -0.0002277  -0.0000168  -0.0015434   0.0060145   0.0007474
   65  -0.0005764   0.0138745  -0.0293384   0.0028973  -0.0018558   0.0011072
   66  -0.0003487  -0.0273176  -0.0248116  -0.0041778   0.0015484   0.0012803
   67  -0.2585156   0.0000876   0.0000605  -0.0442588  -0.0384161   0.0071846
   68   0.0007049  -0.0783998   0.0474779  -0.0440513   0.0024858   0.0030855
   69   0.0004941   0.0525915  -0.0174444   0.0067350  -0.0025111   0.0099432
           37          38          39          40          41          42
    1   0.0003167   0.0000744  -0.0006367  -0.0005134  -0.0000198   0.0000055
    2  -0.0000276  -0.0000048  -0.0001820  -0.0000555  -0.0000033   0.0000035
    3  -0.0001123  -0.0000488   0.0000317   0.0000906   0.0000117  -0.0000038
    4   0.0008954   0.0001492  -0.0020394  -0.0014558  -0.0000438   0.0000648
    5   0.0001498  -0.0000457   0.0006252   0.0003666   0.0001139  -0.0000131
    6  -0.0005439  -0.0000466   0.0066679   0.0031124  -0.0000285   0.0000065
    7  -0.0002152  -0.0001269   0.0038865   0.0017215   0.0000398  -0.0000048
    8   0.0000086   0.0001003   0.0000918  -0.0000011  -0.0000208  -0.0000340
    9   0.0000332   0.0000556   0.0000780  -0.0000011   0.0000022  -0.0000206
   10   0.0001539   0.0000443  -0.0001862  -0.0001753  -0.0000021  -0.0000001
   11  -0.0000175   0.0000247  -0.0000037   0.0000020  -0.0000228   0.0000057
   12   0.0000315  -0.0000272   0.0000129  -0.0000004   0.0000321  -0.0000142
   13   0.0010256   0.0003340  -0.0017218  -0.0014580  -0.0000021  -0.0000648
   14  -0.0000060  -0.0002406  -0.0005139  -0.0003478   0.0001002  -0.0000112
   15   0.0003175   0.0002726  -0.0066292  -0.0030674  -0.0001670   0.0000207
   16   0.0003238   0.0000493  -0.0005666  -0.0005054   0.0000050  -0.0000056
   17   0.0000271   0.0000078   0.0001874   0.0000604   0.0000004   0.0000031
   18   0.0001161   0.0000157  -0.0000287  -0.0000884   0.0000105  -0.0000043
   19   0.0010909  -0.0000744  -0.0036840  -0.0029058   0.0001693  -0.0001123
   20  -0.0003818   0.0000850  -0.0005666  -0.0000824  -0.0001290   0.0000117
   21  -0.0017454  -0.0004700   0.0034957   0.0027316   0.0001094   0.0000535
   22  -0.0001843  -0.0001337   0.0007616   0.0004505   0.0000896  -0.0000252
   23  -0.0002954   0.0000680  -0.0003677   0.0000108  -0.0001292   0.0000395
   24  -0.0001993  -0.0002246   0.0019981   0.0010192   0.0001235  -0.0000332
   25  -0.0003761  -0.0000719   0.0006873   0.0004349  -0.0000798   0.0000257
   26   0.0000439   0.0001155   0.0002849  -0.0000040  -0.0001274   0.0000387
   27   0.0004192   0.0000963  -0.0019568  -0.0010274   0.0000836  -0.0000316
   28   0.0007660   0.0001571  -0.0046196  -0.0030224  -0.0002786   0.0001203
   29   0.0001677   0.0000139   0.0003915   0.0000716  -0.0001206   0.0000099
   30   0.0018374   0.0002132  -0.0037320  -0.0027503   0.0000229   0.0000549
   31  -0.0363529  -0.0394299   0.0071136   0.0186678   0.0004477  -0.0000321
   32  -0.1213073   0.0569091  -0.0132205   0.0006821  -0.1059961   0.0207836
   33   0.0163774  -0.0071331  -0.0010621  -0.0000299   0.0143077  -0.0017500
   34  -0.3311251  -0.0326139   0.0018709  -0.0261487   0.1055682  -0.0195097
   35   0.0750346  -0.1537534   0.0132019   0.0216268   0.0450675  -0.0060791
   36  -0.0194992   0.0147145  -0.0766416  -0.0017252  -0.0078057   0.0145211
   37   0.7340240   0.0043133   0.0076306  -0.2230224   0.0276720  -0.0065990
   38   0.0043133   0.7381793  -0.1055313   0.1471815  -0.2647480   0.0375865
   39   0.0076306  -0.1055313   0.2080785  -0.0324592   0.0403922  -0.0827222
   40  -0.2230224   0.1471815  -0.0324592   0.8340754   0.0006754   0.0028716
   41   0.0276720  -0.2647480   0.0403922   0.0006754   0.7091914  -0.1109032
   42  -0.0065990   0.0375865  -0.0827222   0.0028716  -0.1109032   0.1535616
   43   0.1212327  -0.0548146   0.0079315  -0.2217517  -0.0274192   0.0052958
   44   0.0563180  -0.0780044   0.0112633  -0.1468511  -0.2659446   0.0365675
   45  -0.0071708   0.0107948  -0.0031657   0.0311241   0.0404035  -0.0825158
   46  -0.0863559   0.0539401  -0.0047798  -0.0254017  -0.1060611   0.0193148
   47   0.0359036  -0.0199185   0.0053167  -0.0221603   0.0440921  -0.0061162
   48  -0.0076138   0.0053206  -0.0017356   0.0015953  -0.0085376   0.0146658
   49  -0.0090577   0.0006309   0.0021357   0.0189974  -0.0124622   0.0025315
   50  -0.0097610   0.0030334  -0.0005157   0.0321639  -0.0521132   0.0115319
   51   0.0015458   0.0011332   0.0089321  -0.0059861   0.0114024   0.0058681
   52  -0.1594340  -0.1109552   0.0214218   0.0191436   0.0130125  -0.0025568
   53  -0.1107583  -0.2821888   0.0438036  -0.0316580  -0.0522134   0.0112415
   54   0.0198946   0.0425046  -0.0629987   0.0059658   0.0115061   0.0058991
   55  -0.0098811   0.0350284  -0.0070874  -0.0067056  -0.0016550   0.0002082
   56  -0.0021294   0.0020043   0.0004341  -0.0007965   0.0016543   0.0007630
   57  -0.0010200   0.0004533   0.0066914   0.0016205  -0.0006377   0.0056530
   58  -0.0138379  -0.0046857   0.0010248  -0.3600053  -0.0012045  -0.0012028
   59   0.0316342   0.0078497  -0.0003742  -0.0012179  -0.0720344   0.0066786
   60  -0.0071230  -0.0003187   0.0043394  -0.0012130   0.0065224  -0.0364816
   61  -0.0013925   0.0015649  -0.0007061  -0.0067186   0.0015799  -0.0002904
   62   0.0011827   0.0000203   0.0003443   0.0007344   0.0016923   0.0007628
   63  -0.0013280   0.0006806  -0.0036484  -0.0016834  -0.0006216   0.0056381
   64  -0.0005644  -0.0001642   0.0027058   0.0030064   0.0000377   0.0000003
   65  -0.0003183   0.0010265   0.0018306   0.0002663  -0.0000869  -0.0003029
   66   0.0000935  -0.0007676   0.0018693   0.0000847   0.0001900  -0.0003392
   67   0.0119707  -0.0003967   0.0013166  -0.0167074  -0.0000689  -0.0000348
   68   0.0125466  -0.0105342   0.0031082  -0.0006668   0.0117777  -0.0025681
   69   0.0046576   0.0007267   0.0021258  -0.0001841   0.0035813  -0.0020259
           43          44          45          46          47          48
    1   0.0003335  -0.0000377   0.0005749  -0.0001564   0.0004827  -0.0001574
    2  -0.0000279   0.0000110   0.0001799   0.0001572   0.0000511   0.0000315
    3  -0.0001183   0.0000147  -0.0000303   0.0001095  -0.0000706   0.0000369
    4   0.0010552  -0.0002973   0.0017055  -0.0006832   0.0012558  -0.0004510
    5  -0.0000135  -0.0002464  -0.0005143  -0.0000348  -0.0005417   0.0001268
    6  -0.0004101   0.0001735  -0.0066323  -0.0032495  -0.0028977   0.0000159
    7  -0.0002595   0.0000687  -0.0038472  -0.0016805  -0.0015526   0.0000193
    8  -0.0000107   0.0000995   0.0000937   0.0001220  -0.0000756  -0.0001291
    9  -0.0000349   0.0000555   0.0000823   0.0001786  -0.0000401  -0.0000553
   10   0.0001557  -0.0000404   0.0001852  -0.0000853   0.0001640  -0.0000598
   11   0.0000154   0.0000253  -0.0000085  -0.0000642  -0.0000164  -0.0000155
   12  -0.0000313  -0.0000278   0.0000148   0.0000728   0.0000070   0.0000116
   13   0.0009158  -0.0001127   0.0020307  -0.0001728   0.0010769  -0.0006049
   14  -0.0001535  -0.0000362   0.0006071   0.0004941   0.0006715   0.0002731
   15   0.0006001   0.0000605   0.0065354   0.0022069   0.0026211   0.0000509
   16   0.0003217  -0.0000614   0.0006192  -0.0001665   0.0004606  -0.0001186
   17   0.0000227  -0.0000071  -0.0001869  -0.0000867  -0.0000392  -0.0000310
   18   0.0001106  -0.0000464   0.0000313  -0.0001577   0.0000584  -0.0000375
   19   0.0007744  -0.0000700   0.0044142   0.0004855   0.0033961   0.0003562
   20  -0.0001609   0.0000184   0.0004034   0.0007348   0.0004679   0.0004200
   21  -0.0018739   0.0001428  -0.0036775   0.0013063  -0.0017754   0.0004236
   22  -0.0003822   0.0000600  -0.0007053  -0.0000876  -0.0004293   0.0001440
   23  -0.0000453   0.0001176   0.0002766   0.0001231  -0.0001557   0.0000120
   24  -0.0004351   0.0000588  -0.0019244  -0.0005318  -0.0010187   0.0001080
   25  -0.0001811   0.0001240  -0.0007339  -0.0001524  -0.0003694   0.0000116
   26   0.0002942   0.0000676  -0.0003692  -0.0005806   0.0001051  -0.0001064
   27   0.0002237  -0.0001960   0.0020001   0.0008397   0.0009601  -0.0000735
   28   0.0012067   0.0001410   0.0038032   0.0004032   0.0036388  -0.0010027
   29   0.0003816   0.0000806  -0.0005406  -0.0009334  -0.0002869  -0.0006952
   30   0.0017978  -0.0003991   0.0035021  -0.0004095   0.0020565  -0.0006452
   31  -0.0374861   0.0387037  -0.0070922  -0.1722121   0.0857372  -0.0190043
   32   0.1205102   0.0581567  -0.0136279   0.0471973  -0.2981636   0.0478383
   33  -0.0165572  -0.0071196  -0.0011272  -0.0207203   0.0499396  -0.0753824
   34  -0.0857622  -0.0544769   0.0039501   0.0838504  -0.0196519   0.0033994
   35  -0.0364137  -0.0205898   0.0051605   0.0204590  -0.0399043   0.0062658
   36   0.0069565   0.0050027  -0.0016609  -0.0028974   0.0060020   0.0064837
   37   0.1212327   0.0563180  -0.0071708  -0.0863559   0.0359036  -0.0076138
   38  -0.0548146  -0.0780044   0.0107948   0.0539401  -0.0199185   0.0053206
   39   0.0079315   0.0112633  -0.0031657  -0.0047798   0.0053167  -0.0017356
   40  -0.2217517  -0.1468511   0.0311241  -0.0254017  -0.0221603   0.0015953
   41  -0.0274192  -0.2659446   0.0404035  -0.1060611   0.0440921  -0.0085376
   42   0.0052958   0.0365675  -0.0825158   0.0193148  -0.0061162   0.0146658
   43   0.7337996  -0.0038323  -0.0032975  -0.3304937  -0.0765977   0.0179057
   44  -0.0038323   0.7379004  -0.1056916   0.0309981  -0.1541256   0.0152086
   45  -0.0032975  -0.1056916   0.2081877  -0.0033790   0.0129674  -0.0766415
   46  -0.3304937   0.0309981  -0.0033790   0.7431854   0.0281669  -0.0001195
   47  -0.0765977  -0.1541256   0.0129674   0.0281669   0.7650978  -0.1213747
   48   0.0179057   0.0152086  -0.0766415  -0.0001195  -0.1213747   0.1519846
   49  -0.1610234   0.1116357  -0.0224572  -0.0270146   0.0566687  -0.0101970
   50   0.1114982  -0.2803241   0.0444227   0.0145762  -0.0085368   0.0026476
   51  -0.0209857   0.0431907  -0.0633182  -0.0030560   0.0026895   0.0075594
   52  -0.0091475  -0.0007698  -0.0022532   0.0039869  -0.0058104   0.0015980
   53   0.0096307   0.0030763  -0.0004661  -0.0060263  -0.0046083   0.0009688
   54  -0.0016587   0.0011238   0.0088907   0.0007032   0.0007458  -0.0017611
   55  -0.0013763  -0.0015719   0.0007004  -0.0016399  -0.0028240   0.0005616
   56  -0.0011778   0.0000129   0.0003253  -0.0040599  -0.0025783   0.0019388
   57   0.0013561   0.0006765  -0.0036298  -0.0010340   0.0011176   0.0063492
   58  -0.0136537   0.0045059  -0.0011445   0.0007169  -0.0031796   0.0006569
   59  -0.0318062   0.0076231  -0.0006068  -0.0024338  -0.0052065   0.0019303
   60   0.0069605  -0.0002392   0.0043813  -0.0007913   0.0024011   0.0043055
   61  -0.0096530  -0.0350950   0.0070548  -0.1401454  -0.1163083   0.0211319
   62   0.0020085   0.0017421   0.0004967  -0.1177171  -0.2780358   0.0437973
   63   0.0008994   0.0002727   0.0066921   0.0192497   0.0471011  -0.0467659
   64  -0.0005983   0.0001185  -0.0026683  -0.0013253  -0.0060154  -0.0007422
   65   0.0001204   0.0010861   0.0009406  -0.0031098  -0.0023768   0.0012006
   66  -0.0002021  -0.0007331   0.0017514   0.0042475   0.0013741   0.0013754
   67   0.0119737   0.0005436  -0.0014135  -0.0448548   0.0379467  -0.0073084
   68  -0.0120090  -0.0107386   0.0049399   0.0441402   0.0040847   0.0029093
   69  -0.0044329   0.0006409   0.0022544  -0.0071036  -0.0020647   0.0097273
           49          50          51          52          53          54
    1   0.0001100  -0.0000859  -0.0000041   0.0001045   0.0000626   0.0000119
    2   0.0000748  -0.0000745   0.0000070   0.0000651   0.0000602   0.0000019
    3   0.0000277  -0.0000276   0.0000029   0.0000398   0.0000604  -0.0000128
    4   0.0001952  -0.0000504  -0.0000175   0.0002573   0.0001803   0.0000583
    5  -0.0003565   0.0004393  -0.0000543  -0.0003878  -0.0003287   0.0000115
    6  -0.0020858   0.0018728  -0.0000403  -0.0020114  -0.0018745   0.0000230
    7  -0.0011580   0.0010447  -0.0000210  -0.0011655  -0.0010622   0.0000081
    8   0.0000109  -0.0000586  -0.0000070  -0.0000100  -0.0000584  -0.0000073
    9   0.0000257  -0.0000395  -0.0000058  -0.0000249  -0.0000396  -0.0000060
   10   0.0000044   0.0000111  -0.0000085   0.0000051  -0.0000108   0.0000087
   11  -0.0000022  -0.0000044   0.0000027   0.0000011  -0.0000053   0.0000028
   12   0.0000032   0.0000081  -0.0000050  -0.0000027   0.0000085  -0.0000049
   13   0.0002541  -0.0001778  -0.0000552   0.0002040   0.0000563   0.0000197
   14   0.0003851  -0.0003225   0.0000154   0.0003545   0.0004432  -0.0000501
   15   0.0019818  -0.0018314   0.0000442   0.0020805   0.0018870  -0.0000180
   16   0.0000986  -0.0000576  -0.0000108   0.0001073   0.0000835   0.0000055
   17  -0.0000660   0.0000602   0.0000013  -0.0000762  -0.0000763   0.0000062
   18  -0.0000401   0.0000593  -0.0000130  -0.0000273  -0.0000276   0.0000026
   19   0.0014632  -0.0013226   0.0000168   0.0014817   0.0014463  -0.0001254
   20   0.0003841  -0.0004211   0.0000300   0.0004053   0.0003810   0.0000071
   21  -0.0003647   0.0001799   0.0001105  -0.0004546  -0.0002658  -0.0000645
   22  -0.0001307   0.0001078   0.0000129  -0.0001422  -0.0000749  -0.0000231
   23   0.0001139  -0.0001550   0.0000117   0.0001284   0.0001043   0.0000087
   24  -0.0005096   0.0004857  -0.0000141  -0.0005341  -0.0004116  -0.0000251
   25  -0.0001331   0.0000655   0.0000220  -0.0001249  -0.0001027  -0.0000150
   26  -0.0001307   0.0001049   0.0000071  -0.0001166  -0.0001602   0.0000108
   27   0.0005329  -0.0004053  -0.0000201   0.0005164   0.0004954  -0.0000081
   28   0.0015175  -0.0014633   0.0001422   0.0015132   0.0013773  -0.0000019
   29  -0.0003997   0.0003697   0.0000034  -0.0003777  -0.0004214   0.0000260
   30   0.0004513  -0.0002667  -0.0000596   0.0003833   0.0001920   0.0001149
   31  -0.0088244   0.0002837  -0.0004710  -0.0089150  -0.0003857   0.0003423
   32  -0.0103851   0.0016129   0.0018113   0.0100287   0.0014587   0.0018795
   33   0.0007074   0.0014191   0.0080688  -0.0007840   0.0014331   0.0080789
   34   0.0038126   0.0061677  -0.0006935  -0.0266340  -0.0148356   0.0028333
   35   0.0058759  -0.0045270   0.0007667  -0.0568363  -0.0091298   0.0023445
   36  -0.0015749   0.0010079  -0.0017778   0.0098905   0.0026091   0.0076536
   37  -0.0090577  -0.0097610   0.0015458  -0.1594340  -0.1107583   0.0198946
   38   0.0006309   0.0030334   0.0011332  -0.1109552  -0.2821888   0.0425046
   39   0.0021357  -0.0005157   0.0089321   0.0214218   0.0438036  -0.0629987
   40   0.0189974   0.0321639  -0.0059861   0.0191436  -0.0316580   0.0059658
   41  -0.0124622  -0.0521132   0.0114024   0.0130125  -0.0522134   0.0115061
   42   0.0025315   0.0115319   0.0058681  -0.0025568   0.0112415   0.0058991
   43  -0.1610234   0.1114982  -0.0209857  -0.0091475   0.0096307  -0.0016587
   44   0.1116357  -0.2803241   0.0431907  -0.0007698   0.0030763   0.0011238
   45  -0.0224572   0.0444227  -0.0633182  -0.0022532  -0.0004661   0.0088907
   46  -0.0270146   0.0145762  -0.0030560   0.0039869  -0.0060263   0.0007032
   47   0.0566687  -0.0085368   0.0026895  -0.0058104  -0.0046083   0.0007458
   48  -0.0101970   0.0026476   0.0075594   0.0015980   0.0009688  -0.0017611
   49   0.1734791  -0.1542983   0.0292849   0.0006555  -0.0014674   0.0001902
   50  -0.1542983   0.3405796  -0.0584530   0.0014991  -0.0031139   0.0005544
   51   0.0292849  -0.0584530   0.0455859  -0.0001880   0.0005461  -0.0005859
   52   0.0006555   0.0014991  -0.0001880   0.1713212   0.1532954  -0.0278855
   53  -0.0014674  -0.0031139   0.0005461   0.1532954   0.3431065  -0.0575314
   54   0.0001902   0.0005544  -0.0005859  -0.0278855  -0.0575314   0.0451578
   55   0.0004212   0.0000955  -0.0000420   0.0033187  -0.0011553   0.0002188
   56   0.0003201  -0.0001574  -0.0001051   0.0009203   0.0017530  -0.0012644
   57  -0.0008889   0.0004980  -0.0004379  -0.0009660  -0.0019605  -0.0050067
   58   0.0021121  -0.0001080   0.0000524   0.0021205   0.0001156   0.0000118
   59   0.0017355   0.0025306  -0.0014829  -0.0017283   0.0025183  -0.0014941
   60  -0.0005778  -0.0014588  -0.0049149   0.0006478  -0.0014454  -0.0049075
   61   0.0033145   0.0011759  -0.0001606   0.0004257  -0.0000884   0.0000480
   62  -0.0009013   0.0017527  -0.0012765  -0.0003198  -0.0001633  -0.0001084
   63   0.0010229  -0.0019439  -0.0049908   0.0008949   0.0005089  -0.0004304
   64  -0.0022274   0.0021396  -0.0002134  -0.0022251  -0.0021683   0.0001892
   65  -0.0004352   0.0001137  -0.0002281   0.0001788  -0.0001060  -0.0002211
   66   0.0003992  -0.0002439  -0.0003032  -0.0004365  -0.0002759  -0.0003059
   67   0.0031341  -0.0035039   0.0008364   0.0031428   0.0035460  -0.0007998
   68   0.0030690  -0.0007884  -0.0000118  -0.0025011  -0.0003278  -0.0000567
   69  -0.0005983   0.0004982   0.0003146   0.0006519   0.0005438   0.0003151
           55          56          57          58          59          60
    1  -0.0000314  -0.0000446   0.0002572   0.0000167  -0.0000006  -0.0000014
    2  -0.0000129  -0.0000174   0.0000636   0.0000073  -0.0000007  -0.0000049
    3  -0.0000033  -0.0000034   0.0000049   0.0000017   0.0000010   0.0000048
    4  -0.0000925  -0.0001691   0.0007352   0.0000381  -0.0000064   0.0000081
    5   0.0001128   0.0001400  -0.0003351  -0.0000434   0.0000124   0.0000224
    6   0.0004213   0.0005192  -0.0026884  -0.0002219  -0.0000022   0.0000146
    7   0.0002335   0.0002915  -0.0015452  -0.0001256  -0.0000007  -0.0000010
    8  -0.0000012   0.0000574   0.0000224   0.0000001   0.0000011  -0.0000063
    9   0.0000113   0.0000422  -0.0000006  -0.0000000   0.0000037  -0.0000095
   10  -0.0000034  -0.0000073   0.0000639   0.0000025   0.0000001   0.0000001
   11   0.0000037   0.0000002  -0.0000034  -0.0000001   0.0000002   0.0000007
   12   0.0000022   0.0000112  -0.0000083   0.0000000   0.0000024   0.0000004
   13  -0.0000654  -0.0000254   0.0007055   0.0000383   0.0000070  -0.0000060
   14  -0.0000795  -0.0001433   0.0001692   0.0000425   0.0000125   0.0000231
   15  -0.0003997  -0.0005581   0.0025894   0.0002199   0.0000002   0.0000180
   16  -0.0000317  -0.0000504   0.0002187   0.0000162   0.0000008   0.0000020
   17   0.0000117   0.0000149  -0.0000879  -0.0000074  -0.0000007  -0.0000049
   18   0.0000067   0.0000050   0.0000162  -0.0000017   0.0000010   0.0000048
   19  -0.0003872  -0.0006534   0.0014426   0.0001789   0.0000118   0.0000600
   20  -0.0000783  -0.0001508   0.0002679   0.0000343  -0.0000120  -0.0000030
   21   0.0000680   0.0001041  -0.0014050  -0.0000718  -0.0000131  -0.0000217
   22   0.0000489   0.0000721  -0.0003023  -0.0000167   0.0000078  -0.0000001
   23  -0.0000063  -0.0000287   0.0001072   0.0000089  -0.0000027   0.0000108
   24   0.0001267   0.0001781  -0.0007717  -0.0000545   0.0000160   0.0000094
   25   0.0000096   0.0000047  -0.0001388  -0.0000158  -0.0000081   0.0000002
   26   0.0000002   0.0000179  -0.0000889  -0.0000093  -0.0000027   0.0000113
   27  -0.0000243  -0.0000457   0.0007164   0.0000545   0.0000172   0.0000103
   28  -0.0003756  -0.0004819   0.0020086   0.0001847  -0.0000101  -0.0000553
   29   0.0000459   0.0000811  -0.0000233  -0.0000334  -0.0000123  -0.0000033
   30  -0.0001561  -0.0002353   0.0015902   0.0000728  -0.0000123  -0.0000185
   31   0.0152538   0.0161137  -0.0065784   0.0002839   0.0000071   0.0000064
   32  -0.0173871  -0.0173115   0.0037818  -0.0000064  -0.0015807  -0.0004185
   33   0.0030303   0.0030048   0.0017476   0.0000095  -0.0002603  -0.0018222
   34  -0.1417866   0.1186075  -0.0200776   0.0006565   0.0024784   0.0007861
   35   0.1171433  -0.2761570   0.0475097   0.0032132  -0.0051565   0.0024527
   36  -0.0219033   0.0441014  -0.0469622  -0.0007023   0.0019358   0.0042947
   37  -0.0098811  -0.0021294  -0.0010200  -0.0138379   0.0316342  -0.0071230
   38   0.0350284   0.0020043   0.0004533  -0.0046857   0.0078497  -0.0003187
   39  -0.0070874   0.0004341   0.0066914   0.0010248  -0.0003742   0.0043394
   40  -0.0067056  -0.0007965   0.0016205  -0.3600053  -0.0012179  -0.0012130
   41  -0.0016550   0.0016543  -0.0006377  -0.0012045  -0.0720344   0.0065224
   42   0.0002082   0.0007630   0.0056530  -0.0012028   0.0066786  -0.0364816
   43  -0.0013763  -0.0011778   0.0013561  -0.0136537  -0.0318062   0.0069605
   44  -0.0015719   0.0000129   0.0006765   0.0045059   0.0076231  -0.0002392
   45   0.0007004   0.0003253  -0.0036298  -0.0011445  -0.0006068   0.0043813
   46  -0.0016399  -0.0040599  -0.0010340   0.0007169  -0.0024338  -0.0007913
   47  -0.0028240  -0.0025783   0.0011176  -0.0031796  -0.0052065   0.0024011
   48   0.0005616   0.0019388   0.0063492   0.0006569   0.0019303   0.0043055
   49   0.0004212   0.0003201  -0.0008889   0.0021121   0.0017355  -0.0005778
   50   0.0000955  -0.0001574   0.0004980  -0.0001080   0.0025306  -0.0014588
   51  -0.0000420  -0.0001051  -0.0004379   0.0000524  -0.0014829  -0.0049149
   52   0.0033187   0.0009203  -0.0009660   0.0021205  -0.0017283   0.0006478
   53  -0.0011553   0.0017530  -0.0019605   0.0001156   0.0025183  -0.0014454
   54   0.0002188  -0.0012644  -0.0050067   0.0000118  -0.0014941  -0.0049075
   55   0.1425582  -0.1276175   0.0244956  -0.0005758   0.0015650  -0.0002159
   56  -0.1276175   0.2923580  -0.0490991  -0.0001142   0.0001602   0.0000105
   57   0.0244956  -0.0490991   0.0362867  -0.0000715   0.0001195   0.0009605
   58  -0.0005758  -0.0001142  -0.0000715   0.3820703   0.0013334   0.0013061
   59   0.0015650   0.0001602   0.0001195   0.0013334   0.0631704  -0.0066830
   60  -0.0002159   0.0000105   0.0009605   0.0013061  -0.0066830   0.0287415
   61   0.0006307   0.0008632   0.0000978  -0.0005646  -0.0015723   0.0001980
   62  -0.0008518  -0.0008378   0.0000613   0.0001081   0.0001496   0.0000132
   63  -0.0000936   0.0000671   0.0008462   0.0000593   0.0001125   0.0009631
   64   0.0005316   0.0008202  -0.0011704  -0.0002525  -0.0000011  -0.0000006
   65  -0.0000541  -0.0002044  -0.0005906  -0.0000157   0.0000162   0.0002707
   66  -0.0001491  -0.0002538  -0.0003885  -0.0000043   0.0000467   0.0003492
   67  -0.0000535  -0.0006860   0.0007913   0.0006123   0.0000042   0.0000104
   68  -0.0007115  -0.0006674  -0.0020214   0.0000384  -0.0000350  -0.0011529
   69   0.0002238   0.0000602  -0.0021525   0.0000058   0.0000638  -0.0002216
           61          62          63          64          65          66
    1  -0.0000333   0.0000523  -0.0002226  -0.0043496  -0.0013511  -0.0018759
    2  -0.0000116   0.0000146  -0.0000852  -0.0006808   0.0045284  -0.0036575
    3  -0.0000066   0.0000048   0.0000165  -0.0000150  -0.0032315   0.0061067
    4  -0.0000648   0.0000294  -0.0006993  -0.0310298   0.0666076   0.0638563
    5   0.0000825  -0.0001423   0.0001735   0.0082232   0.0331602   0.0227258
    6   0.0004109  -0.0005711   0.0026062   0.0087144   0.0144339   0.0287956
    7   0.0002368  -0.0002955   0.0015394  -0.0076347  -0.0006086  -0.0003623
    8   0.0000001   0.0000555   0.0000193  -0.0003702  -0.0550835  -0.0460699
    9  -0.0000127   0.0000407  -0.0000017  -0.0003010  -0.0384776  -0.0463675
   10  -0.0000037   0.0000078  -0.0000640   0.0010687   0.0000048  -0.0000058
   11  -0.0000034  -0.0000003  -0.0000013  -0.0000140  -0.0013433  -0.0004836
   12  -0.0000025   0.0000111  -0.0000089  -0.0000056   0.0000105  -0.0012014
   13  -0.0000955   0.0001702  -0.0007358  -0.0321681  -0.0657323  -0.0632306
   14  -0.0001125   0.0001374  -0.0003268  -0.0075307   0.0339210   0.0233229
   15  -0.0004214   0.0005233  -0.0026513  -0.0082283   0.0159442   0.0293958
   16  -0.0000310   0.0000444  -0.0002506  -0.0043335   0.0014989   0.0019237
   17   0.0000134  -0.0000181   0.0000660   0.0007312   0.0044847  -0.0036778
   18   0.0000032  -0.0000031   0.0000051   0.0000567  -0.0032430   0.0060859
   19  -0.0003667   0.0004738  -0.0019308  -0.1568216  -0.0483502  -0.0238557
   20  -0.0000490   0.0000829  -0.0000344  -0.0917726  -0.2227018  -0.1181795
   21   0.0001563  -0.0002370   0.0015684  -0.0607766  -0.1192696  -0.1722751
   22   0.0000121  -0.0000085   0.0001519   0.0111334  -0.0132596  -0.0115930
   23   0.0000003   0.0000169  -0.0000869   0.0158621  -0.0091346  -0.0117237
   24   0.0000270  -0.0000516   0.0007115   0.0076511  -0.0107264  -0.0055297
   25   0.0000479  -0.0000715   0.0002924   0.0111206   0.0129305   0.0113873
   26   0.0000071  -0.0000303   0.0001093  -0.0160880  -0.0091458  -0.0117135
   27  -0.0001296   0.0001825  -0.0007761  -0.0078125  -0.0104690  -0.0055264
   28  -0.0004067   0.0006640  -0.0014978  -0.1551188   0.0476956   0.0227190
   29   0.0000795  -0.0001505   0.0002593   0.0904481  -0.2237231  -0.1187076
   30  -0.0000715   0.0001115  -0.0014077   0.0595973  -0.1193702  -0.1725955
   31   0.0152385  -0.0158919   0.0065482  -0.0056394  -0.0005764  -0.0003487
   32   0.0176620  -0.0173269   0.0044421  -0.0002277   0.0138745  -0.0273176
   33  -0.0029923   0.0029117   0.0017186  -0.0000168  -0.0293384  -0.0248116
   34  -0.0016721   0.0040203   0.0010727  -0.0015434   0.0028973  -0.0041778
   35   0.0028164  -0.0025280   0.0011010   0.0060145  -0.0018558   0.0015484
   36  -0.0006135   0.0019486   0.0063661   0.0007474   0.0011072   0.0012803
   37  -0.0013925   0.0011827  -0.0013280  -0.0005644  -0.0003183   0.0000935
   38   0.0015649   0.0000203   0.0006806  -0.0001642   0.0010265  -0.0007676
   39  -0.0007061   0.0003443  -0.0036484   0.0027058   0.0018306   0.0018693
   40  -0.0067186   0.0007344  -0.0016834   0.0030064   0.0002663   0.0000847
   41   0.0015799   0.0016923  -0.0006216   0.0000377  -0.0000869   0.0001900
   42  -0.0002904   0.0007628   0.0056381   0.0000003  -0.0003029  -0.0003392
   43  -0.0096530   0.0020085   0.0008994  -0.0005983   0.0001204  -0.0002021
   44  -0.0350950   0.0017421   0.0002727   0.0001185   0.0010861  -0.0007331
   45   0.0070548   0.0004967   0.0066921  -0.0026683   0.0009406   0.0017514
   46  -0.1401454  -0.1177171   0.0192497  -0.0013253  -0.0031098   0.0042475
   47  -0.1163083  -0.2780358   0.0471011  -0.0060154  -0.0023768   0.0013741
   48   0.0211319   0.0437973  -0.0467659  -0.0007422   0.0012006   0.0013754
   49   0.0033145  -0.0009013   0.0010229  -0.0022274  -0.0004352   0.0003992
   50   0.0011759   0.0017527  -0.0019439   0.0021396   0.0001137  -0.0002439
   51  -0.0001606  -0.0012765  -0.0049908  -0.0002134  -0.0002281  -0.0003032
   52   0.0004257  -0.0003198   0.0008949  -0.0022251   0.0001788  -0.0004365
   53  -0.0000884  -0.0001633   0.0005089  -0.0021683  -0.0001060  -0.0002759
   54   0.0000480  -0.0001084  -0.0004304   0.0001892  -0.0002211  -0.0003059
   55   0.0006307  -0.0008518  -0.0000936   0.0005316  -0.0000541  -0.0001491
   56   0.0008632  -0.0008378   0.0000671   0.0008202  -0.0002044  -0.0002538
   57   0.0000978   0.0000613   0.0008462  -0.0011704  -0.0005906  -0.0003885
   58  -0.0005646   0.0001081   0.0000593  -0.0002525  -0.0000157  -0.0000043
   59  -0.0015723   0.0001496   0.0001125  -0.0000011   0.0000162   0.0000467
   60   0.0001980   0.0000132   0.0009631  -0.0000006   0.0002707   0.0003492
   61   0.1407717   0.1266846  -0.0236572   0.0005440   0.0001184   0.0001707
   62   0.1266846   0.2943393  -0.0487666  -0.0008184  -0.0002715  -0.0002575
   63  -0.0236572  -0.0487666   0.0361070   0.0011680  -0.0002402  -0.0003493
   64   0.0005440  -0.0008184   0.0011680   0.6445627   0.0004653   0.0004260
   65   0.0001184  -0.0002715  -0.0002402   0.0004653   0.5069130   0.2694815
   66   0.0001707  -0.0002575  -0.0003493   0.0004260   0.2694815   0.3744730
   67  -0.0000740   0.0006953  -0.0007354  -0.2661354   0.0010274   0.0009338
   68   0.0005924  -0.0004989  -0.0028067   0.0009912  -0.0730910   0.0253731
   69  -0.0002341   0.0000620  -0.0022083   0.0006944   0.0304891  -0.0214894
           67          68          69
    1  -0.0028880   0.0007235   0.0002974
    2  -0.0000334   0.0002563   0.0002601
    3  -0.0001811  -0.0000943  -0.0003091
    4   0.0028327   0.0120249   0.0019195
    5   0.0173898   0.0049375  -0.0041227
    6   0.0095845  -0.0000102   0.0052929
    7   0.0051694   0.0005338   0.0000571
    8  -0.0000109  -0.0097788  -0.0005444
    9  -0.0000091  -0.0070119  -0.0009318
   10  -0.0004456  -0.0000290  -0.0000013
   11   0.0000076   0.0000011   0.0011600
   12  -0.0000005   0.0003273  -0.0008794
   13   0.0026555  -0.0125621  -0.0020001
   14  -0.0174068   0.0049120  -0.0040309
   15  -0.0095610  -0.0020307   0.0050962
   16  -0.0028789  -0.0009087  -0.0003104
   17   0.0000611   0.0003244   0.0002639
   18   0.0001995  -0.0001024  -0.0003023
   19  -0.0655186  -0.0128854  -0.0153095
   20  -0.0126405   0.0063805  -0.0024426
   21  -0.0129706   0.0048748   0.0041813
   22   0.0024359   0.0002076   0.0000725
   23   0.0022017   0.0014478   0.0050815
   24   0.0017635   0.0027627  -0.0017218
   25   0.0023868   0.0000768   0.0000008
   26  -0.0021818   0.0015588   0.0051077
   27  -0.0017719   0.0021270  -0.0017786
   28  -0.0653447   0.0119555   0.0156487
   29   0.0131124   0.0064051  -0.0027435
   30   0.0133898   0.0035516   0.0038631
   31  -0.2585156   0.0007049   0.0004941
[...]
 C         -0.061 -0.036 -0.028   -0.023  0.012  0.013   -0.001  0.000  0.000
 C          0.000  0.046  0.040   -0.005  0.000  0.000    0.000  0.002  0.002
 H         -0.003 -0.421 -0.371   -0.009 -0.001 -0.001    0.000 -0.007 -0.007
 C          0.060 -0.036 -0.028   -0.023 -0.012 -0.013    0.001  0.000  0.000
 H         -0.471  0.206  0.162   -0.155  0.040  0.038    0.008 -0.002 -0.002
 C         -0.077 -0.048 -0.036    0.031  0.000  0.010   -0.004  0.000  0.000
 H          0.139  0.056  0.025   -0.114 -0.038 -0.084    0.026  0.017  0.008
 H         -0.140  0.058  0.027   -0.113  0.039  0.085   -0.026  0.017  0.008
 C          0.076 -0.048 -0.036    0.031 -0.001 -0.010    0.004  0.000  0.000
 C          0.000 -0.003 -0.007   -0.114  0.000  0.000    0.000  0.012  0.002
 C         -0.001  0.001  0.001    0.047  0.047 -0.009    0.078  0.045 -0.009
 C          0.003 -0.001  0.001    0.188  0.245 -0.044    0.014  0.009 -0.003
 C          0.000  0.002 -0.001   -0.012  0.000  0.000    0.000 -0.104  0.020
 C         -0.003  0.000  0.001    0.190 -0.244  0.045   -0.014  0.009 -0.003
 C          0.001  0.001  0.001    0.047 -0.047  0.010   -0.078  0.044 -0.009
 F          0.001  0.000  0.000   -0.069  0.101 -0.019    0.009  0.000  0.000
 F          0.000  0.000  0.000   -0.068 -0.102  0.019   -0.009  0.000  0.000
 H          0.006  0.005 -0.004   -0.485 -0.227  0.032   -0.524 -0.285  0.059
 H          0.000  0.005  0.001    0.009 -0.001  0.000   -0.002  0.494 -0.088
 H         -0.004  0.004 -0.003   -0.485  0.222 -0.034    0.525 -0.281  0.062
 C          0.001  0.123  0.086    0.191  0.000  0.000    0.000 -0.003 -0.006
 C          0.000 -0.011  0.007   -0.205  0.001  0.000    0.000 -0.010  0.002
 TransDip  -0.001  0.088  0.092    0.196  0.002  0.002    0.000  0.084 -0.015

 Mode:                46                     47                     48
 Frequency:      1455.27                1514.51                1568.48
 Force Cnst:      1.7001                10.5394                 5.6516
 Red. Mass:       1.3625                 7.7987                 3.8991
 IR Active:          YES                    YES                    YES
 IR Intens:        2.386                 30.668                 23.277
 Raman Active:       YES                    YES                    YES
               X      Y      Z        X      Y      Z        X      Y      Z
 H         -0.200 -0.065 -0.057    0.279  0.083  0.070    0.064  0.034  0.026
 C         -0.011  0.011  0.011   -0.006 -0.031 -0.031   -0.016 -0.004 -0.002
 C          0.000  0.041  0.034    0.039  0.000  0.000    0.000 -0.009 -0.009
 H         -0.001 -0.158 -0.140    0.052  0.001  0.001    0.000  0.065  0.050
 C          0.011  0.011  0.011   -0.006  0.031  0.031    0.016 -0.003 -0.001
 H          0.200 -0.068 -0.058    0.275 -0.085 -0.071   -0.058  0.033  0.026
 C         -0.074  0.005  0.002   -0.067 -0.024 -0.027   -0.004  0.005  0.006
 H          0.534  0.270  0.234    0.237  0.096  0.107   -0.017  0.011 -0.009
 H         -0.530  0.275  0.237    0.237 -0.099 -0.109    0.021  0.009 -0.009
 C          0.073  0.005  0.002   -0.067  0.025  0.028    0.002  0.006  0.007
 C          0.000  0.005  0.006   -0.328 -0.005  0.001   -0.002  0.327 -0.068
 C         -0.002 -0.005  0.000   -0.018 -0.061  0.008    0.086 -0.125  0.027
 C         -0.004 -0.001 -0.001    0.066  0.229 -0.042   -0.207 -0.044  0.004
 C          0.000  0.005 -0.001    0.030  0.000  0.000    0.001  0.067 -0.012
 C          0.005 -0.001  0.000    0.063 -0.228  0.042    0.207 -0.046  0.006
 C          0.003 -0.004  0.000   -0.017  0.065 -0.009   -0.087 -0.124  0.026
 F         -0.001  0.000  0.000   -0.025  0.058 -0.011   -0.032  0.027 -0.005
 F          0.001  0.000  0.000   -0.025 -0.059  0.011    0.032  0.026 -0.005
 H          0.023  0.009 -0.001    0.151  0.051  0.014   -0.211 -0.328  0.065
 H          0.000 -0.033  0.004    0.051  0.008 -0.001    0.003 -0.620  0.123
 H         -0.024  0.009 -0.002    0.148 -0.043 -0.014    0.223 -0.331  0.070
 C         -0.001 -0.102 -0.085   -0.265  0.001  0.001   -0.001  0.003 -0.018
 C          0.000  0.010  0.002    0.533  0.000 -0.001    0.003 -0.044  0.021
 TransDip   0.000  0.043  0.024   -0.177 -0.002 -0.001   -0.001 -0.147  0.047

 Mode:                49                     50                     51
 Frequency:      1590.32                1604.26                1645.07
 Force Cnst:      2.6995                 4.8191                 3.2726
 Red. Mass:       1.8116                 3.1781                 2.0525
 IR Active:          YES                    YES                    YES
 IR Intens:        9.885                 56.003                  6.509
 Raman Active:       YES                    YES                    YES
               X      Y      Z        X      Y      Z        X      Y      Z
 H          0.390  0.233  0.185    0.085  0.027  0.022    0.432  0.141  0.110
 C         -0.115 -0.007 -0.003   -0.012 -0.013 -0.012   -0.074 -0.074 -0.060
 C         -0.001 -0.094 -0.078    0.015  0.000  0.000    0.073  0.000  0.000
 H          0.003  0.497  0.407    0.020 -0.003 -0.002    0.095 -0.001  0.000
 C          0.115 -0.008 -0.004   -0.013  0.013  0.012   -0.074  0.075  0.061
 H         -0.386  0.236  0.187    0.088 -0.030 -0.024    0.431 -0.145 -0.113
 C         -0.039  0.053  0.043   -0.018 -0.013 -0.011   -0.087 -0.079 -0.063
 H          0.018  0.093  0.081    0.082  0.030  0.024    0.441  0.147  0.104
 H         -0.014  0.093  0.080    0.082 -0.032 -0.025    0.439 -0.151 -0.107
 C          0.040  0.053  0.043   -0.018  0.012  0.010   -0.086  0.080  0.063
 C          0.000 -0.017  0.010   -0.142  0.001 -0.001    0.031  0.000  0.000
 C         -0.005  0.007 -0.002    0.043  0.095 -0.019   -0.003 -0.002  0.001
 C          0.011  0.002 -0.001    0.138 -0.195  0.039   -0.012  0.008 -0.001
 C         -0.001 -0.005  0.001   -0.150  0.000 -0.001    0.012  0.000  0.000
 C         -0.011  0.004 -0.001    0.138  0.196 -0.038   -0.013 -0.008  0.001
 C          0.006  0.006 -0.002    0.043 -0.096  0.020   -0.003  0.002 -0.001
 F          0.002 -0.002  0.000   -0.004 -0.031  0.006    0.000  0.001  0.000
 F         -0.002 -0.001  0.000   -0.004  0.031 -0.006    0.000 -0.001  0.000
 H          0.012  0.019 -0.001   -0.562 -0.225  0.048    0.042  0.020 -0.008
 H         -0.001  0.033 -0.008   -0.188 -0.003  0.000    0.015  0.001  0.000
 H         -0.017  0.021 -0.003   -0.561  0.218 -0.050    0.041 -0.019  0.008
 C          0.000 -0.104 -0.085   -0.023  0.001  0.001    0.138  0.000  0.000
 C          0.000  0.010 -0.001    0.090  0.000  0.000   -0.065  0.000  0.000
 TransDip   0.000  0.091  0.044   -0.240 -0.002  0.000    0.082  0.001  0.000

 Mode:                52                     53                     54
 Frequency:      1734.94                1738.05                1752.35
 Force Cnst:      7.6941                 9.7258                 8.2074
 Red. Mass:       4.3385                 5.4645                 4.5365
 IR Active:          YES                    YES                    YES
 IR Intens:       13.679               1063.820                  0.535
 Raman Active:       YES                    YES                    YES
               X      Y      Z        X      Y      Z        X      Y      Z
 H         -0.331 -0.221 -0.180   -0.067 -0.048 -0.037    0.240 -0.044 -0.040
 C          0.258  0.050  0.040    0.049  0.009  0.006   -0.036 -0.141 -0.115
 C         -0.148  0.000  0.000   -0.029  0.001  0.001    0.002  0.247  0.205
 H         -0.178  0.001  0.001   -0.035 -0.002 -0.002   -0.003 -0.438 -0.374
 C          0.256 -0.051 -0.041    0.049 -0.011 -0.007    0.034 -0.141 -0.115
 H         -0.327  0.224  0.183   -0.068  0.048  0.037   -0.241 -0.042 -0.038
 C         -0.233 -0.049 -0.037   -0.047 -0.009 -0.004    0.115  0.137  0.110
 H          0.276  0.197  0.139    0.062  0.049  0.027   -0.330 -0.043 -0.030
 H          0.273 -0.200 -0.140    0.065 -0.051 -0.028    0.330 -0.046 -0.033
 C         -0.233  0.050  0.038   -0.048  0.010  0.006   -0.114  0.138  0.111
 C          0.012  0.000  0.000   -0.161 -0.001  0.000    0.001  0.005  0.007
 C         -0.048 -0.009  0.002    0.295  0.079 -0.013   -0.005 -0.004  0.000
 C          0.048 -0.004  0.003   -0.283  0.030 -0.006    0.002  0.006 -0.002
 C         -0.022 -0.001  0.000    0.136  0.001  0.000   -0.001 -0.009  0.002
 C          0.047  0.006 -0.003   -0.282 -0.034  0.005    0.000  0.006 -0.002
 C         -0.047  0.008 -0.002    0.295 -0.076  0.015    0.003 -0.003  0.000
 F         -0.004  0.002  0.000    0.018 -0.006  0.001    0.000 -0.001  0.000
 F         -0.004 -0.002  0.000    0.018  0.006 -0.001    0.000 -0.001  0.000
 H          0.066  0.055 -0.021   -0.402 -0.325  0.064    0.011  0.006  0.002
 H         -0.024  0.002 -0.001    0.150 -0.001  0.001   -0.001  0.016 -0.005
 H          0.064 -0.053  0.021   -0.402  0.320 -0.066   -0.008  0.003  0.002
 C          0.118  0.000  0.000    0.025 -0.001 -0.001   -0.001 -0.192 -0.155
 C          0.020  0.000  0.000    0.004  0.000  0.000    0.000  0.004 -0.005
 TransDip  -0.118  0.004  0.001   -1.045 -0.003 -0.001    0.004  0.019 -0.013

 Mode:                55                     56                     57
 Frequency:      1766.44                3240.44                3249.76
 Force Cnst:      9.8894                 6.7297                 6.7937
 Red. Mass:       5.3793                 1.0878                 1.0918
 IR Active:          YES                    YES                    YES
 IR Intens:      302.987                  1.026                  6.270
 Raman Active:       YES                    YES                    YES
               X      Y      Z        X      Y      Z        X      Y      Z
 H          0.006 -0.002 -0.001   -0.262  0.351  0.292   -0.298  0.404  0.337
 C         -0.001 -0.004 -0.003    0.023 -0.030 -0.025    0.025 -0.036 -0.030
 C          0.000  0.006  0.005   -0.050  0.000  0.000    0.000  0.003  0.003
 H          0.000 -0.011 -0.008    0.590 -0.002 -0.002   -0.001 -0.005 -0.004
 C          0.002 -0.004 -0.004    0.024  0.030  0.025   -0.026 -0.036 -0.030
 H         -0.008 -0.001  0.000   -0.268 -0.351 -0.293    0.304  0.402  0.336
 C          0.003  0.004  0.003    0.007 -0.012 -0.010   -0.013  0.021  0.018
 H         -0.006 -0.002  0.004   -0.100  0.139  0.117    0.173 -0.237 -0.200
 H          0.009 -0.003  0.003   -0.103 -0.140 -0.118   -0.181 -0.243 -0.205
 C         -0.004  0.005  0.004    0.007  0.012  0.011    0.014  0.022  0.018
 C          0.002 -0.236  0.051    0.000  0.000  0.000    0.000  0.000  0.000
 C          0.130  0.168 -0.034    0.000  0.000  0.000    0.000  0.000  0.000
 C         -0.009 -0.238  0.046    0.000  0.000  0.000    0.000  0.000  0.000
 C         -0.002  0.349 -0.067    0.000  0.000  0.000    0.000  0.000  0.000
 C          0.012 -0.237  0.047    0.000  0.000  0.000    0.000  0.000  0.000
 C         -0.133  0.167 -0.035    0.000  0.000  0.000    0.000  0.000  0.000
 F         -0.010  0.025 -0.005    0.000  0.000  0.000    0.000  0.000  0.000
 F          0.010  0.025 -0.005    0.000  0.000  0.000    0.000  0.000  0.000
 H         -0.342 -0.087  0.018   -0.003  0.005  0.000   -0.002  0.004 -0.001
 H          0.001 -0.583  0.113   -0.002  0.000  0.000    0.000  0.000  0.000
 H          0.344 -0.085  0.019   -0.003 -0.005  0.000    0.002  0.003 -0.001
 C          0.001 -0.012 -0.001    0.001  0.000  0.000    0.000 -0.002 -0.001
 C         -0.001  0.017 -0.010    0.000  0.000  0.000    0.000  0.000  0.000
 TransDip   0.005 -0.549  0.097    0.032  0.000  0.000    0.000 -0.063 -0.050

 Mode:                58                     59                     60
 Frequency:      3259.98                3260.65                3261.56
 Force Cnst:      6.8428                 6.8461                 6.8638
 Red. Mass:       1.0928                 1.0929                 1.0951
 IR Active:          YES                    YES                    YES
 IR Intens:        1.859                  4.557                  8.226
 Raman Active:       YES                    YES                    YES
               X      Y      Z        X      Y      Z        X      Y      Z
 H          0.003 -0.004 -0.003    0.002 -0.003 -0.003    0.062 -0.093 -0.078
 C          0.000  0.000  0.000    0.000  0.000  0.000   -0.002  0.010  0.008
 C          0.001  0.000  0.000    0.000  0.000  0.000   -0.057  0.000  0.000
 H         -0.007  0.000  0.000   -0.003  0.000  0.000    0.633 -0.003 -0.002
 C          0.000  0.000  0.000    0.000  0.000  0.000   -0.004 -0.011 -0.009
 H          0.002  0.002  0.002   -0.004 -0.005 -0.004    0.074  0.107  0.089
 C          0.000  0.000  0.000    0.000  0.000  0.000   -0.021  0.031  0.026
 H         -0.001  0.001  0.001    0.000  0.001  0.001    0.252 -0.342 -0.287
 H         -0.001 -0.002 -0.002   -0.003 -0.004 -0.003    0.267  0.354  0.297
 C          0.000  0.000  0.000    0.000  0.000  0.000   -0.023 -0.032 -0.027
 C          0.002  0.001  0.000    0.000  0.005 -0.001    0.000  0.000  0.000
 C          0.034 -0.059  0.011    0.027 -0.046  0.009    0.000 -0.001  0.000
 C         -0.004 -0.001  0.000   -0.002 -0.001  0.000    0.000  0.000  0.000
 C          0.000  0.000  0.000    0.000  0.001  0.000    0.000  0.000  0.000
 C         -0.003  0.001  0.000    0.003 -0.001  0.000    0.000  0.000  0.000
 C          0.026  0.046 -0.008   -0.034 -0.059  0.011    0.000  0.000  0.000
 F          0.000  0.000  0.000    0.000  0.000  0.000    0.000  0.000  0.000
 F          0.000  0.000  0.000    0.000  0.000  0.000    0.000  0.000  0.000
 H         -0.385  0.674 -0.126   -0.300  0.524 -0.098   -0.004  0.007 -0.001
 H          0.000  0.000  0.000    0.000 -0.001  0.000   -0.004  0.000  0.000
 H         -0.295 -0.527  0.097    0.381  0.677 -0.124    0.001  0.001 -0.001
 C          0.000  0.000  0.000    0.000  0.000  0.000   -0.003  0.000  0.000
 C          0.000  0.000  0.000    0.000 -0.001  0.000    0.000  0.000  0.000
 TransDip   0.043 -0.009  0.002   -0.004 -0.067  0.012   -0.092 -0.003 -0.002

 Mode:                61                     62                     63
 Frequency:      3268.08                3273.45                3294.37
 Force Cnst:      6.9036                 6.9430                 6.9930
 Red. Mass:       1.0971                 1.0997                 1.0936
 IR Active:          YES                    YES                    YES
 IR Intens:       10.427                 16.075                  0.089
 Raman Active:       YES                    YES                    YES
               X      Y      Z        X      Y      Z        X      Y      Z
 H         -0.186  0.246  0.205    0.217 -0.294 -0.245    0.000  0.000  0.000
 C          0.019 -0.022 -0.018   -0.020  0.027  0.023    0.000  0.000  0.000
 C          0.002  0.002  0.002   -0.045  0.000  0.000    0.000  0.000  0.000
 H         -0.018 -0.003 -0.003    0.493 -0.002 -0.002    0.004  0.000  0.000
 C         -0.018 -0.020 -0.017   -0.020 -0.027 -0.023    0.000  0.000  0.000
 H          0.179  0.230  0.192    0.223  0.295  0.246    0.000  0.000  0.000
 C          0.028 -0.036 -0.031    0.020 -0.026 -0.022    0.000  0.000  0.000
 H         -0.303  0.406  0.342   -0.216  0.287  0.242    0.001 -0.001 -0.002
 H          0.303  0.395  0.334   -0.210 -0.273 -0.230    0.001  0.001  0.001
 C         -0.028 -0.035 -0.030    0.020  0.025  0.021    0.000  0.000  0.000
 C          0.000  0.000  0.000    0.000  0.000  0.000    0.000  0.000  0.000
 C          0.000  0.000  0.000    0.000  0.000  0.000    0.001  0.000  0.000
 C          0.000  0.000  0.000    0.000  0.000  0.000    0.001 -0.004  0.001
 C          0.000  0.000  0.000    0.000  0.000  0.000   -0.088  0.000  0.000
 C          0.000  0.000  0.000    0.000  0.000  0.000    0.001  0.004 -0.001
 C          0.000  0.000  0.000    0.000  0.000  0.000    0.001  0.000  0.000
 F          0.000  0.000  0.000    0.000  0.000  0.000    0.000 -0.001  0.000
 F          0.000  0.000  0.000    0.000  0.000  0.000    0.000  0.001  0.000
 H         -0.003  0.005 -0.001    0.001 -0.001  0.000   -0.001  0.000 -0.001
 H          0.000  0.000  0.000    0.000  0.000  0.000    0.996  0.004  0.004
 H          0.002  0.005 -0.001    0.001  0.001  0.000   -0.001  0.000  0.001
 C          0.000  0.004  0.003    0.002  0.000  0.000    0.000  0.000  0.000
 C          0.000  0.000  0.000    0.000  0.000  0.000    0.001  0.000  0.000
 TransDip   0.003 -0.077 -0.069   -0.128  0.000  0.000    0.010  0.000  0.000

 STANDARD THERMODYNAMIC QUANTITIES AT   298.15 K  AND     1.00 ATM

   This Molecule has  1 Imaginary Frequencies
   Zero point vibrational energy:      111.125 kcal/mol

   Atom    1 Element H  Has Mass    1.00783
   Atom    2 Element C  Has Mass   12.00000
   Atom    3 Element C  Has Mass   12.00000
   Atom    4 Element H  Has Mass    1.00783
   Atom    5 Element C  Has Mass   12.00000
   Atom    6 Element H  Has Mass    1.00783
   Atom    7 Element C  Has Mass   12.00000
   Atom    8 Element H  Has Mass    1.00783
   Atom    9 Element H  Has Mass    1.00783
   Atom   10 Element C  Has Mass   12.00000
   Atom   11 Element C  Has Mass   12.00000
   Atom   12 Element C  Has Mass   12.00000
   Atom   13 Element C  Has Mass   12.00000
   Atom   14 Element C  Has Mass   12.00000
   Atom   15 Element C  Has Mass   12.00000
   Atom   16 Element C  Has Mass   12.00000
   Atom   17 Element F  Has Mass   18.99840
   Atom   18 Element F  Has Mass   18.99840
   Atom   19 Element H  Has Mass    1.00783
   Atom   20 Element H  Has Mass    1.00783
   Atom   21 Element H  Has Mass    1.00783
   Atom   22 Element C  Has Mass   12.00000
   Atom   23 Element C  Has Mass   12.00000
   Molecular Mass:   202.059440 amu
   Principal axes and moments of inertia in amu*Bohr^2:
                             1           2           3
    Eigenvalues --     1350.49690  7104.88153  8125.46629
          X               1.00000     0.00000    -0.00002
          Y               0.00000     0.99946     0.03279
          Z               0.00002    -0.03279     0.99946
   Rotational Symmetry Number is   1
   The Molecule is an Asymmetric Top
   Translational Enthalpy:        0.889 kcal/mol
   Rotational Enthalpy:           0.889 kcal/mol
   Vibrational Enthalpy:        115.888 kcal/mol
   gas constant (RT):             0.592 kcal/mol
   Translational Entropy:        41.815  cal/mol.K
   Rotational Entropy:           32.722  cal/mol.K
   Vibrational Entropy:          28.066  cal/mol.K

   Total Enthalpy:              118.258 kcal/mol
   Total Entropy:               102.603  cal/mol.K
Archival summary:
1\1\o0599.ten.osc.edu\FREQ\HF\BasisUnspecified\2138\rkhatri2\ThuSep1510:49:592022ThuSep1510:49:592022\0\\#,FREQ,HF,BasisUnspecified,\\0,1\F\C,1,1.33941\C,2,1.38808,1,119.418\H,3,1.08338,2,120.639,1,-0.0276663,0\C,3,1.38821,2,118.716,1,179.955,0\F,5,1.33939,3,119.405,2,179.984,0\C,2,1.39215,1,119.367,3,179.96,0\H,7,1.08595,2,119.36,1,0.0890544,0\C,5,1.39229,3,121.224,2,-0.0472026,0\H,9,1.08594,5,119.361,3,-179.866,0\C,9,1.39534,5,119.424,3,0.0433644,0\C,11,1.42864,9,120.061,5,-179.837,0\C,12,1.42927,11,179.646,9,137.949,0\C,13,1.39592,12,120.071,11,171.338,0\H,14,1.08707,13,120.5,12,-0.0276832,0\C,13,1.39606,12,119.934,11,-8.63,0\H,16,1.0871,13,120.48,12,-0.0826022,0\C,16,1.39618,13,119.984,12,179.947,0\H,18,1.08693,16,119.964,13,-179.981,0\C,18,1.39483,16,120.01,13,0.0342218,0\H,20,1.08712,18,119.981,16,179.989,0\C,20,1.39495,18,120.026,16,-0.0135617,0\H,22,1.08695,20,120.003,18,-179.994,0\\HF=-695.696645\\@

 Total job time:  2962.53s(wall), 3388.16s(cpu) 
 Thu Sep 15 10:49:59 2022

        *************************************************************
        *                                                           *
        *  Thank you very much for using Q-Chem.  Have a nice day.  *
        *                                                           *
        *************************************************************


