                  Welcome to Q-Chem
     A Quantum Leap Into The Future Of Chemistry


 Q-Chem 5.3 (devel), Q-Chem, Inc., Pleasanton, CA (2020)

 Yihan Shao,  Zhengting Gan,  E. Epifanovsky,  A. T. B. Gilbert,  M. Wormit,  
 J. Kussmann,  A. W. Lange,  A. Behn,  Jia Deng,  Xintian Feng,  D. Ghosh,  
 M. Goldey,  P. R. Horn,  L. D. Jacobson,  I. Kaliman,  T. Kus,  A. Landau,  
 Jie Liu,  E. I. Proynov,  R. M. Richard,  R. P. Steele,  E. J. Sundstrom,  
 H. L. Woodcock III,  P. M. Zimmerman,  D. Zuev,  B. Alam,  B. Albrecht,  
 A. Aldossary,  E. Alguire,  S. A. Baeppler,  D. Barton,  Z. Benda,  
 Y. A. Bernard,  E. J. Berquist,  K. B. Bravaya,  H. Burton,  K. Carter-Fenk,  
 D. Casanova,  Chun-Min Chang,  Yunqing Chen,  A. Chien,  K. D. Closser,  
 M. P. Coons,  S. Coriani,  S. Dasgupta,  A. L. Dempwolff,  M. Diedenhofen,  
 Hainam Do,  R. G. Edgar,  Po-Tung Fang,  S. Faraji,  S. Fatehi,  
 Qingguo Feng,  J. Fosso-Tande,  J. Gayvert,  Qinghui Ge,  A. Ghysels,  
 G. Gidofalvi,  J. Gomes,  J. Gonthier,  S. Gulania,  A. Gunina,  D. Hait,  
 M. W. D. Hanson-Heine,  S. Hammes-Schiffer,  P. H. P. Harbach,  
 A. W. Hauser,  M. F. Herbst,  J. E. Herr,  E. G. Hohenstein,  Z. C. Holden,  
 S. Houck,  Kerwin Hui,  B. C. Huynh,  M. Ivanov,  T.-C. Jagau,  Hyunjun Ji,  
 B. Kaduk,  K. Khistyaev,  Jaehoon Kim,  P. Klunzinger,  K. Koh,  
 D. Kosenkov,  L. Koulias,  T. Kowalczyk,  C. M. Krauter,  A. Kunitsa,  
 Ka Un Lao,  A. Laurent,  K. V. Lawler,  Joonho Lee,  D. Lefrancois,  
 S. Lehtola,  D. S. Levine,  Yi-Pei Li,  You-Sheng Lin,  Fenglai Liu,  
 Kuan-Yu Liu,  E. Livshits,  M. Loipersberger,  A. Luenser,  P. Manohar,  
 E. Mansoor,  S. F. Manzer,  Shan-Ping Mao,  Yuezhi Mao,  N. Mardirossian,  
 A. V. Marenich,  T. Markovich,  L. A. Martinez-Martinez,  S. A. Maurer,  
 N. J. Mayhall,  S. C. McKenzie,  J.-M. Mewes,  P. Morgante,  A. F. Morrison,  
 J. W. Mullinax,  K. Nanda,  T. S. Nguyen-Beck,  R. Olivares-Amaya,  
 K. J. Oosterbaan,  J. A. Parkhill,  S. K. Paul,  F. Pavosevic,  Zheng Pei,  
 T. M. Perrine,  F. Plasser,  P. Pokhilko,  S. Prager,  A. Prociuk,  
 E. Ramos,  B. Rana,  D. R. Rehn,  F. Rob,  E. Rossomme,  M. Scheurer,  
 M. Schneider,  N. Sergueev,  S. M. Sharada,  S. Sharma,  W. Skomorowski,  
 D. W. Small,  T. Stauch,  C. J. Stein,  T. Stein,  Yu-Chuan Su,  
 S. P. Veccham,  Zhen Tao,  A. J. W. Thom,  A. Tkatchenko,  T. Tsuchimochi,  
 N. M. Tubman,  L. Vogt,  M. L. Vidal,  O. Vydrov,  M. A. Watson,  J. Wenzel,  
 M. de Wergifosse,  T. A. Wesolowski,  A. White,  J. Witte,  A. Yamada,  
 Jun Yang,  K. Yao,  S. Yeganeh,  S. R. Yost,  Zhi-Qiang You,  A. Zech,  
 Igor Ying Zhang,  Xing Zhang,  Yan Zhao,  Ying Zhu,  B. R. Brooks,  
 G. K. L. Chan,  C. J. Cramer,  M. S. Gordon,  W. J. Hehre,  A. Klamt,  
 M. W. Schmidt,  C. D. Sherrill,  D. G. Truhlar,  A. Aspuru-Guzik,  R. Baer,  
 A. T. Bell,  N. A. Besley,  Jeng-Da Chai,  A. E. DePrince, III,  
 R. A. DiStasio Jr.,  A. Dreuw,  B. D. Dunietz,  T. R. Furlani,  
 Chao-Ping Hsu,  Yousung Jung,  Jing Kong,  D. S. Lambrecht,  WanZhen Liang,  
 C. Ochsenfeld,  V. A. Rassolov,  L. V. Slipchenko,  J. E. Subotnik,  
 T. Van Voorhis,  J. M. Herbert,  A. I. Krylov,  P. M. W. Gill,  M. Head-Gordon

 Contributors to earlier versions of Q-Chem not listed above: 
 R. D. Adamson,  B. Austin,  J. Baker,  G. J. O. Beran,  K. Brandhorst,  
 S. T. Brown,  E. F. C. Byrd,  A. K. Chakraborty,  C.-L. Cheng,  
 Siu Hung Chien,  D. M. Chipman,  D. L. Crittenden,  H. Dachsel,  
 R. J. Doerksen,  A. D. Dutoi,  L. Fusti-Molnar,  W. A. Goddard III,  
 A. Golubeva-Zadorozhnaya,  S. R. Gwaltney,  G. Hawkins,  A. Heyden,  
 S. Hirata,  G. Kedziora,  F. J. Keil,  C. Kelley,  Jihan Kim,  R. A. King,  
 R. Z. Khaliullin,  P. P. Korambath,  W. Kurlancheek,  A. M. Lee,  M. S. Lee,  
 S. V. Levchenko,  Ching Yeh Lin,  D. Liotard,  R. C. Lochan,  I. Lotan,  
 P. E. Maslen,  N. Nair,  D. P. O'Neill,  D. Neuhauser,  E. Neuscamman,  
 C. M. Oana,  R. Olson,  B. Peters,  R. Peverati,  P. A. Pieniazek,  
 Y. M. Rhee,  J. Ritchie,  M. A. Rohrdanz,  E. Rosta,  N. J. Russ,  
 H. F. Schaefer III,  N. E. Schultz,  N. Shenvi,  A. C. Simmonett,  A. Sodt,  
 D. Stuck,  K. S. Thanthiriwatte,  V. Vanovschi,  Tao Wang,  A. Warshel,  
 C. F. Williams,  Q. Wu,  X. Xu,  W. Zhang

 Please cite Q-Chem as follows:
 Y. Shao et al., Mol. Phys. 113, 184-215 (2015)
 DOI: 10.1080/00268976.2014.952696

 Q-Chem 5.3.0 for Intel X86 EM64T Linux

 Parts of Q-Chem use Armadillo 9.800.1 (Horizon Scraper).
 http://arma.sourceforge.net/

 Q-Chem begins on Mon Sep 12 21:07:09 2022  

Host: node4.as.kent.edu
0

     Scratch files written to /home/eholder/1-Benzyl-3,5-difluorobenzene/qchem/sp-HF/sp//
Processing $rem in /data/dunietz/qchem/qchem-5.3.0/config/preferences:
Processing $rem in /home/eholder/.qchemrc:

Checking the input file for inconsistencies... 	...done.

--------------------------------------------------------------
User input:
--------------------------------------------------------------
$molecule
0 3

H 4.7021589417999996 -1.6558741992999999 -1.38214085139999998
C 4.16374833660000032 -0.930602816099999952 -0.777567958500000045
C 4.86708065769999987 -0.00558839830000000017 -0.00606311999999999997
H 5.95419013740000036 -0.0101692637999999998 -0.00945571090000000072
C 4.17608785609999966 0.925239356700000015 0.769807213799999945
H 4.72454423000000023 1.64584296259999996 1.37095643569999992
C 2.77976312050000018 0.931450048500000016 0.775058500300000008
H 2.24931526939999982 1.65947881930000007 1.38360142199999991
H 2.22720198330000008 -1.6488276423999999 -1.37882045129999997
C 2.76758720290000015 -0.925106054400000044 -0.773839641599999961
C -0.78225633750000001 0.0063567023000000002 0.00607326030000000013
C -1.47620996929999992 -1.18337791390000002 0.230386711500000008
C -2.86832142190000017 -1.1753556637 0.2229723713
C -3.57977878609999989 -0.00495508460000000043 -0.00234798670000000006
C -2.8762496917 1.17128144509999998 -0.222883332500000003
C -1.48409223430000003 1.1906306016999999 -0.221759126000000001
F -3.54885696289999997 2.30872633380000014 -0.441449606200000011
F -3.53291179949999989 -2.31849185299999982 0.436438523999999994
H -0.950086991199999953 -2.11611750229999984 0.410586529799999989
H -4.66313936259999995 -0.00945193910000000082 -0.0063012462
H -0.964472309599999966 2.12741536789999985 -0.399784810099999999
C 2.07563340640000016 0.00600317039999999965 0.00283283890000000016
C 0.646375687799999987 0.00995678480000000005 0.00674000619999999984

$end






$rem
jobtype               opt
exchange              HF
correlation           none

omega		      140
omega2                140
HF_SR		      200
HF_LR	   	      250
basis                 6-31++G(d,p)

scf_convergence       8
geom_opt_maxcyc       500
max_scf_cycles        5000
mem_static            4000
mem_total             42000
molden_format         false
print_general_basis   false

$end

--------------------------------------------------------------
 ----------------------------------------------------------------
             Standard Nuclear Orientation (Angstroms)
    I     Atom           X                Y                Z
 ----------------------------------------------------------------
    1      H       4.7021589418    -1.6558741993    -1.3821408514
    2      C       4.1637483366    -0.9306028161    -0.7775679585
    3      C       4.8670806577    -0.0055883983    -0.0060631200
    4      H       5.9541901374    -0.0101692638    -0.0094557109
    5      C       4.1760878561     0.9252393567     0.7698072138
    6      H       4.7245442300     1.6458429626     1.3709564357
    7      C       2.7797631205     0.9314500485     0.7750585003
    8      H       2.2493152694     1.6594788193     1.3836014220
    9      H       2.2272019833    -1.6488276424    -1.3788204513
   10      C       2.7675872029    -0.9251060544    -0.7738396416
   11      C      -0.7822563375     0.0063567023     0.0060732603
   12      C      -1.4762099693    -1.1833779139     0.2303867115
   13      C      -2.8683214219    -1.1753556637     0.2229723713
   14      C      -3.5797787861    -0.0049550846    -0.0023479867
   15      C      -2.8762496917     1.1712814451    -0.2228833325
   16      C      -1.4840922343     1.1906306017    -0.2217591260
   17      F      -3.5488569629     2.3087263338    -0.4414496062
   18      F      -3.5329117995    -2.3184918530     0.4364385240
   19      H      -0.9500869912    -2.1161175023     0.4105865298
   20      H      -4.6631393626    -0.0094519391    -0.0063012462
   21      H      -0.9644723096     2.1274153679    -0.3997848101
   22      C       2.0756334064     0.0060031704     0.0028328389
   23      C       0.6463756878     0.0099567848     0.0067400062
 ----------------------------------------------------------------
 Molecular Point Group                 C1    NOp =  1
 Largest Abelian Subgroup              C1    NOp =  1
 Nuclear Repulsion Energy =         836.72076185 hartrees
 There are       53 alpha and       51 beta electrons
 Requested basis set is 6-31++G(d,p)
 There are 107 shells and 333 basis functions

 Total QAlloc Memory Limit  42000 MB
 Mega-Array Size      3911 MB
 MEM_STATIC part      4000 MB
 A cutoff of  1.0D-11 yielded   4475 shell pairs
 There are     44431 function pairs
 Smallest overlap matrix eigenvalue = 4.06E-08

 Q-Chem warning in module stvman/mkSTV.C, line 318:

 Overlap eigenvalue is smaller than square root of threshold
 Use THRESH >= 12 to get rid of this warning

 Linear dependence detected in AO basis
 Tighter screening thresholds may be required for diffuse basis sets
 Use S2THRESH > 14 and THRESH = 14 in case of SCF convergence issues
 Number of orthogonalized atomic orbitals = 331
 Maximum deviation from orthogonality = 1.118E-10

 Scale SEOQF with 1.000000e-02/1.000000e-01/1.000000e-01

 Standard Electronic Orientation quadrupole field applied
 Nucleus-field energy     =     0.0000000129 hartrees
 Guess from superposition of atomic densities
 Warning:  Energy on first SCF cycle will be non-variational
 SAD guess density has 104.000000 electrons

 -----------------------------------------------------------------------
  General SCF calculation program by
  Eric Jon Sundstrom, Paul Horn, Yuezhi Mao, Dmitri Zuev, Alec White,
  David Stuck, Shaama M.S., Shane Yost, Joonho Lee, David Small,
  Daniel Levine, Susi Lehtola, Hugh Burton, Evgeny Epifanovsky,
  Bang C. Huynh
 -----------------------------------------------------------------------
 Hartree-Fock
 using 8 threads for integral computing
 -------------------------------------------------------
 OpenMP Integral computing Module                
 Release: version 1.0, May 2013, Q-Chem Inc. Pittsburgh 
 -------------------------------------------------------
 A unrestricted SCF calculation will be
 performed using DIIS
 SCF converges when DIIS error is below 1.0e-08
 ---------------------------------------
  Cycle       Energy         DIIS error
 ---------------------------------------
    1    -701.5304973854      1.98e-02  
    2    -695.5208550429      1.68e-03  
    3    -695.7223277627      7.48e-04  
    4    -695.7579936916      3.19e-04  
    5    -695.7716674811      1.51e-04  
    6    -695.7773760741      1.15e-04  
    7    -695.7836430436      8.89e-05  
    8    -695.7877807374      7.97e-05  
    9    -695.7948035912      5.26e-05  
   10    -695.7974949772      1.91e-05  
   11    -695.7975527358      1.07e-05  
   12    -695.7976197645      4.01e-06  
   13    -695.7976236828      2.35e-06  
   14    -695.7976256848      1.35e-06  
   15    -695.7976266125      7.99e-07  
   16    -695.7976270028      3.92e-07  
   17    -695.7976270690      2.20e-07  
   18    -695.7976270950      8.41e-08  
   19    -695.7976270983      2.42e-08  
   20    -695.7976270982      1.14e-08  
   21    -695.7976270980      6.09e-09  Convergence criterion met
 ---------------------------------------
 SCF time:   CPU 190.69s  wall 26.00s 
<S^2> =          3.220628645
 SCF   energy in the final basis set =     -695.7976270980
 Total energy in the final basis set =     -695.7976270980

 --------------------------------------------------------------

                    Orbital Energies (a.u.)
 --------------------------------------------------------------

 Alpha MOs
 -- Occupied --
-26.3337 -26.3337 -11.3347 -11.3347 -11.2759 -11.2665 -11.2664 -11.2630
-11.2630 -11.2605 -11.2518 -11.2517 -11.2487 -11.2372 -11.2371  -1.6395
 -1.6390  -1.1949  -1.1721  -1.0922  -1.0467  -1.0460  -1.0303  -0.9600
 -0.8717  -0.8648  -0.8381  -0.8048  -0.7520  -0.7491  -0.7103  -0.7031
 -0.6969  -0.6963  -0.6883  -0.6706  -0.6453  -0.6433  -0.6082  -0.6012
 -0.5966  -0.5605  -0.5510  -0.5498  -0.5295  -0.5139  -0.5088  -0.4458
 -0.4157  -0.3898  -0.3785  -0.3528  -0.3222
 -- Virtual --
  0.0365   0.0475   0.0475   0.0565   0.0612   0.0717   0.0721   0.0912
  0.1056   0.1092   0.1165   0.1166   0.1218   0.1228   0.1318   0.1391
  0.1441   0.1488   0.1577   0.1608   0.1634   0.1650   0.1695   0.1860
  0.1880   0.1882   0.1925   0.1964   0.1965   0.1967   0.2048   0.2066
  0.2126   0.2150   0.2170   0.2188   0.2299   0.2332   0.2335   0.2342
  0.2385   0.2396   0.2451   0.2502   0.2563   0.2670   0.2675   0.2693
  0.2869   0.2915   0.2958   0.3028   0.3045   0.3136   0.3241   0.3305
  0.3470   0.3544   0.3554   0.3676   0.3679   0.3857   0.3859   0.3923
  0.3978   0.4157   0.4161   0.4329   0.4443   0.4587   0.4598   0.4665
  0.4693   0.4700   0.4725   0.4855   0.4977   0.4998   0.5070   0.5180
  0.5227   0.5294   0.5408   0.5493   0.5634   0.5682   0.5871   0.5905
  0.6001   0.6207   0.6795   0.7748   0.7798   0.7949   0.8207   0.8420
  0.8745   0.9001   0.9019   0.9194   0.9290   0.9293   0.9419   0.9427
  0.9593   0.9631   0.9708   0.9875   0.9941   1.0007   1.0043   1.0162
  1.0243   1.0290   1.0430   1.0458   1.0543   1.0657   1.0743   1.0803
  1.0976   1.1061   1.1393   1.1584   1.1784   1.1869   1.2018   1.2261
  1.2346   1.2421   1.2452   1.2733   1.2873   1.2893   1.3171   1.3315
  1.3366   1.3427   1.3657   1.3804   1.3896   1.4094   1.4122   1.4571
  1.4649   1.4781   1.4925   1.4981   1.4993   1.5441   1.5775   1.5817
  1.5940   1.6063   1.6156   1.6272   1.6299   1.6386   1.6530   1.6742
  1.6817   1.6862   1.6872   1.7179   1.7875   1.8819   1.9426   1.9494
  1.9552   1.9605   1.9794   1.9916   2.0350   2.0489   2.0515   2.0773
  2.0870   2.0906   2.0948   2.1026   2.1186   2.1559   2.1742   2.1745
  2.1873   2.1990   2.2105   2.2159   2.2173   2.2404   2.2603   2.2677
  2.2759   2.2773   2.2794   2.3018   2.3241   2.3535   2.3715   2.4020
  2.4040   2.4118   2.4282   2.5382   2.5458   2.5650   2.5966   2.6089
  2.6154   2.6166   2.6447   2.6569   2.6692   2.6838   2.6934   2.6980
  2.7086   2.7116   2.7187   2.7499   2.7520   2.7859   2.7881   2.8191
  2.8396   2.8571   2.8672   2.9026   2.9055   2.9080   2.9103   2.9572
  2.9592   2.9664   2.9848   2.9879   2.9950   3.0651   3.0828   3.1001
  3.1528   3.1599   3.1765   3.1860   3.3405   3.4083   3.4341   3.4381
  3.4706   3.5240   3.5428   3.6088   3.6410   3.6469   3.6558   3.7132
  3.7662   3.8135   3.8169   3.8520   3.9180   4.1700   4.3036   4.6941
  4.6995   4.7154   4.7226   4.7298   4.7670   4.8069   4.9065   4.9158
  4.9302   5.0356   5.2626   5.3952   6.7128   6.7144

 Beta MOs
 -- Occupied --
-26.3355 -26.3355 -11.3487 -11.3487 -11.2931 -11.2778 -11.2522 -11.2503
-11.2503 -11.2469 -11.2468 -11.2358 -11.2358 -11.2348 -11.2227  -1.6453
 -1.6448  -1.1853  -1.1652  -1.0675  -1.0412  -1.0354  -1.0237  -0.8952
 -0.8660  -0.8481  -0.8323  -0.7948  -0.7463  -0.7405  -0.7222  -0.7151
 -0.6986  -0.6945  -0.6855  -0.6626  -0.6417  -0.6315  -0.6047  -0.5947
 -0.5931  -0.5535  -0.5407  -0.5276  -0.5157  -0.5068  -0.5050  -0.4046
 -0.3785  -0.3639  -0.3631
 -- Virtual --
  0.0369   0.0475   0.0479   0.0571   0.0607   0.0709   0.0722   0.0779
  0.0902   0.0984   0.1046   0.1055   0.1098   0.1188   0.1257   0.1351
  0.1404   0.1411   0.1422   0.1494   0.1568   0.1634   0.1711   0.1733
  0.1820   0.1869   0.1909   0.1949   0.1965   0.1978   0.1989   0.2060
  0.2062   0.2120   0.2146   0.2197   0.2204   0.2247   0.2321   0.2341
  0.2348   0.2407   0.2423   0.2426   0.2562   0.2588   0.2673   0.2678
  0.2720   0.2785   0.2898   0.2943   0.2956   0.3046   0.3140   0.3148
  0.3350   0.3388   0.3500   0.3559   0.3656   0.3676   0.3748   0.3839
  0.3877   0.4011   0.4171   0.4254   0.4261   0.4334   0.4518   0.4615
  0.4659   0.4689   0.4690   0.4735   0.4822   0.4889   0.4994   0.5004
  0.5123   0.5235   0.5267   0.5408   0.5427   0.5517   0.5623   0.5718
  0.5903   0.5983   0.6063   0.6300   0.6941   0.7809   0.7836   0.7979
  0.8243   0.8511   0.8812   0.9054   0.9201   0.9231   0.9296   0.9330
  0.9667   0.9692   0.9782   0.9907   0.9977   1.0061   1.0087   1.0092
  1.0125   1.0128   1.0287   1.0302   1.0353   1.0497   1.0690   1.0721
  1.0888   1.0907   1.1232   1.1358   1.1452   1.1633   1.1914   1.1957
  1.2115   1.2279   1.2334   1.2486   1.2547   1.2761   1.2874   1.2881
  1.3206   1.3362   1.3379   1.3401   1.3790   1.3818   1.3887   1.4161
  1.4230   1.4604   1.4831   1.4856   1.4958   1.5020   1.5157   1.5604
  1.5732   1.5879   1.5947   1.6022   1.6081   1.6284   1.6460   1.6552
  1.6622   1.6805   1.6882   1.6894   1.6931   1.7200   1.7952   1.8851
  1.9490   1.9507   1.9794   1.9891   2.0285   2.0459   2.0530   2.0744
  2.0780   2.0814   2.0915   2.0948   2.0950   2.1044   2.1254   2.1603
  2.1774   2.2013   2.2048   2.2120   2.2180   2.2217   2.2261   2.2465
  2.2673   2.2686   2.2776   2.2806   2.2832   2.3024   2.3318   2.3455
  2.3733   2.4014   2.4096   2.4161   2.4201   2.5438   2.5571   2.5669
  2.5984   2.6122   2.6194   2.6196   2.6525   2.6672   2.6758   2.6871
  2.6929   2.7058   2.7110   2.7188   2.7199   2.7454   2.7536   2.7811
  2.7880   2.8221   2.8498   2.8585   2.8731   2.9022   2.9113   2.9153
  2.9158   2.9575   2.9659   2.9730   2.9883   2.9914   2.9982   3.0662
  3.0855   3.0944   3.1523   3.1654   3.1803   3.1850   3.3437   3.4095
  3.4353   3.4450   3.4826   3.5252   3.5458   3.6061   3.6379   3.6470
  3.6561   3.7147   3.7697   3.8162   3.8198   3.8559   3.9189   4.1737
  4.3058   4.6955   4.7052   4.7157   4.7264   4.7377   4.7667   4.8241
  4.9056   4.9177   4.9336   5.0472   5.2644   5.4023   6.7112   6.7134
 --------------------------------------------------------------

          Ground-State Mulliken Net Atomic Charges

     Atom                 Charge (a.u.)    Spin (a.u.)
  --------------------------------------------------------
      1 H                     0.150855       0.059734
      2 C                     0.140861      -0.933527
      3 C                    -0.420280       1.043942
      4 H                     0.132164      -0.063160
      5 C                     0.147356      -0.932645
      6 H                     0.150775       0.059708
      7 C                    -0.717606       1.075196
      8 H                     0.131868      -0.070090
      9 H                     0.131662      -0.070014
     10 C                    -0.724803       1.076280
     11 C                     0.782943      -1.173893
     12 C                    -0.354242       0.949903
     13 C                    -0.129301      -0.703743
     14 C                     0.431620       0.838910
     15 C                    -0.124883      -0.703702
     16 C                    -0.353259       0.950358
     17 F                    -0.410148       0.008717
     18 F                    -0.410222       0.008728
     19 H                     0.170071      -0.072836
     20 H                     0.200624      -0.064917
     21 H                     0.169712      -0.072957
     22 C                     0.791653      -1.186629
     23 C                     0.112581       1.976636
  --------------------------------------------------------
  Sum of atomic charges =    -0.000000
  Sum of spin   charges =     2.000000

 -----------------------------------------------------------------
                    Cartesian Multipole Moments
 -----------------------------------------------------------------
    Charge (ESU x 10^10)
                -0.0000
    Dipole Moment (Debye)
         X       2.3433      Y       0.0006      Z      -0.0009
       Tot       2.3433
    Quadrupole Moments (Debye-Ang)
        XX     -82.2360     XY       0.0099     YY     -88.7055
        XZ       0.0042     YZ       4.8624     ZZ     -87.5142
    Octopole Moments (Debye-Ang^2)
       XXX       5.3723    XXY      -0.2469    XYY      14.6488
       YYY       0.1377    XXZ      -0.0129    XYZ      10.1630
       YYZ      -0.0001    XZZ     -16.7277    YZZ      -0.0726
       ZZZ      -0.0736
    Hexadecapole Moments (Debye-Ang^3)
      XXXX   -4501.4841   XXXY       1.4495   XXYY   -1055.8475
      XYYY      -0.5360   YYYY    -809.7750   XXXZ       0.3277
      XXYZ      78.7685   XYYZ       0.0258   YYYZ       4.2086
      XXZZ    -876.3994   XYZZ      -0.0021   YYZZ    -158.7072
      XZZZ       0.2572   YZZZ      -6.4989   ZZZZ    -229.8069
 -----------------------------------------------------------------
 Calculating analytic gradient of the SCF energy
 Gradient of SCF Energy
            1           2           3           4           5           6
    1   0.0044455   0.0005524  -0.0173856   0.0083787   0.0004173   0.0045632
    2  -0.0054289   0.0093803   0.0000240  -0.0000549  -0.0093426   0.0053834
    3  -0.0045839   0.0081222   0.0000173  -0.0000398  -0.0080797   0.0045537
            7           8           9          10          11          12
    1  -0.0149831  -0.0027560  -0.0028680  -0.0147301  -0.0477535   0.0156909
    2  -0.0204205   0.0067786  -0.0067619   0.0205160   0.0003055   0.0335308
    3  -0.0180709   0.0055273  -0.0055059   0.0181637   0.0001765  -0.0071579
           13          14          15          16          17          18
    1  -0.0126217   0.0277475  -0.0126196   0.0158923  -0.0035660  -0.0034780
    2   0.0016102   0.0000471  -0.0016186  -0.0334672   0.0088320  -0.0088894
    3  -0.0005657   0.0000971   0.0004639   0.0072160  -0.0017448   0.0016921
           19          20          21          22          23
    1   0.0039114  -0.0067831   0.0038416   0.0513101   0.0027939
    2  -0.0080611  -0.0000447   0.0080955   0.0002510  -0.0006646
    3   0.0014308  -0.0000374  -0.0014187   0.0000289  -0.0002849
 Max gradient component =       5.131E-02
 RMS gradient           =       1.329E-02
 Gradient time:  CPU 41.15 s  wall 5.43 s
 Geometry Optimization Parameters
   NAtoms,    NIC,     NZ,  NCons,   NDum,   NFix, NCnnct, MaxDiis
       23     159       0       0       0       0       0       0


** GEOMETRY OPTIMIZATION IN DELOCALIZED INTERNAL COORDINATES **
   Searching for a Minimum

   Optimization Cycle:   1

                       Coordinates (Angstroms)
     ATOM                X               Y               Z
      1  H         4.7021589418   -1.6558741993   -1.3821408514
      2  C         4.1637483366   -0.9306028161   -0.7775679585
      3  C         4.8670806577   -0.0055883983   -0.0060631200
      4  H         5.9541901374   -0.0101692638   -0.0094557109
      5  C         4.1760878561    0.9252393567    0.7698072138
      6  H         4.7245442300    1.6458429626    1.3709564357
      7  C         2.7797631205    0.9314500485    0.7750585003
      8  H         2.2493152694    1.6594788193    1.3836014220
      9  H         2.2272019833   -1.6488276424   -1.3788204513
     10  C         2.7675872029   -0.9251060544   -0.7738396416
     11  C        -0.7822563375    0.0063567023    0.0060732603
     12  C        -1.4762099693   -1.1833779139    0.2303867115
     13  C        -2.8683214219   -1.1753556637    0.2229723713
     14  C        -3.5797787861   -0.0049550846   -0.0023479867
     15  C        -2.8762496917    1.1712814451   -0.2228833325
     16  C        -1.4840922343    1.1906306017   -0.2217591260
     17  F        -3.5488569629    2.3087263338   -0.4414496062
     18  F        -3.5329117995   -2.3184918530    0.4364385240
     19  H        -0.9500869912   -2.1161175023    0.4105865298
     20  H        -4.6631393626   -0.0094519391   -0.0063012462
     21  H        -0.9644723096    2.1274153679   -0.3997848101
     22  C         2.0756334064    0.0060031704    0.0028328389
     23  C         0.6463756878    0.0099567848    0.0067400062
   Point Group: c1    Number of degrees of freedom:    63


   Energy is   -695.797627098


 Attempting to generate delocalized internal coordinates
 Initial Hessian constructed with Jon Baker's OPTIMIZE code

 63 Hessian modes will be used to form the next step
  Hessian Eigenvalues:
     0.002002    0.016465    0.016558    0.022915    0.022920    0.022931
     0.022946    0.022981    0.023005    0.023044    0.023072    0.023083
     0.023210    0.023244    0.023464    0.023667    0.023723    0.023841
     0.023975    0.160000    0.160000    0.160000    0.160000    0.160000
     0.160000    0.160000    0.160000    0.183540    0.196053    0.220000
     0.220000    0.234855    0.234856    0.234965    0.235008    0.249999
     0.250000    0.250000    0.250000    0.351471    0.351497    0.351532
     0.351678    0.351701    0.352853    0.352862    0.355894    0.410946
     0.411858    0.419810    0.422502    0.427308    0.428112    0.462443
     0.462830    0.463859    0.464439    0.465012    0.469339    0.470971
     0.475249    0.573383    0.573430

 Minimum search - taking simple RFO step
 Searching for Lamda that Minimizes Along All modes
 Value Taken    Lamda =  -0.01141247
 Step Taken.  Stepsize is  0.255319

                             Maximum     Tolerance    Cnvgd?
         Gradient           0.048278      0.000300      NO
         Displacement       0.177469      0.001200      NO
         Energy change     *********      0.000001      NO


 New Cartesian Coordinates Obtained by Inverse Iteration

 Displacement from previous Coordinates is:  0.669790
 ----------------------------------------------------------------
             Standard Nuclear Orientation (Angstroms)
    I     Atom           X                Y                Z
 ----------------------------------------------------------------
    1      H       4.7055106975    -1.5795015625    -1.4606935056
    2      C       4.1718296228    -0.8940487271    -0.8279448379
    3      C       4.8789335058    -0.0041556833    -0.0053740856
    4      H       5.9538317736    -0.0072726123    -0.0079124844
    5      C       4.1809989063     0.8898944829     0.8204903942
    6      H       4.7218054577     1.5722334864     1.4505409498
    7      C       2.7853360610     0.9006811564     0.8286143243
    8      H       2.2583933474     1.5871096880     1.4646819144
    9      H       2.2419516095    -1.5795713485    -1.4628280847
   10      C       2.7761195664    -0.8964813523    -0.8291799218
   11      C      -0.7595082184     0.0044679013     0.0035576210
   12      C      -1.4798464329    -1.1893836844     0.2877846449
   13      C      -2.8654428757    -1.1554656365     0.2773336177
   14      C      -3.5966780055    -0.0036540319    -0.0004649072
   15      C      -2.8710873142     1.1523388637    -0.2757199260
   16      C      -1.4856764315     1.1942609600    -0.2819565851
   17      F      -3.5474760936     2.2667523444    -0.5429247121
   18      F      -3.5363081859    -2.2736418788     0.5428100455
   19      H      -0.9707774972    -2.1068956560     0.5111686382
   20      H      -4.6702765762    -0.0066805734    -0.0022765289
   21      H      -0.9812450009     2.1148133822    -0.5033200865
   22      C       2.0524766417     0.0042185914     0.0016514914
   23      C       0.6444464055     0.0084451522     0.0050019967
 ----------------------------------------------------------------
 Molecular Point Group                 C1    NOp =  1
 Largest Abelian Subgroup              C1    NOp =  1
 Nuclear Repulsion Energy =         836.05069855 hartrees
 There are       53 alpha and       51 beta electrons
 Applying Cartesian multipole field
    Component          Value
    ---------          -----
     (2,0,0)        1.00000E-12
     (0,2,0)        2.00000E-11
     (0,0,2)       -3.00000E-11
 Nucleus-field energy     =     0.0000000118 hartrees
 Requested basis set is 6-31++G(d,p)
 There are 107 shells and 333 basis functions
 A cutoff of  1.0D-11 yielded   4474 shell pairs
 There are     44355 function pairs
 Smallest overlap matrix eigenvalue = 3.52E-08

 Q-Chem warning in module stvman/mkSTV.C, line 318:

 Overlap eigenvalue is smaller than square root of threshold
 Use THRESH >= 12 to get rid of this warning

 Linear dependence detected in AO basis
 Tighter screening thresholds may be required for diffuse basis sets
 Use S2THRESH > 14 and THRESH = 14 in case of SCF convergence issues
 Number of orthogonalized atomic orbitals = 331
 Maximum deviation from orthogonality = 1.298E-10
 Guess MOs from SCF MO coefficient file

 -----------------------------------------------------------------------
  General SCF calculation program by
  Eric Jon Sundstrom, Paul Horn, Yuezhi Mao, Dmitri Zuev, Alec White,
  David Stuck, Shaama M.S., Shane Yost, Joonho Lee, David Small,
  Daniel Levine, Susi Lehtola, Hugh Burton, Evgeny Epifanovsky,
  Bang C. Huynh
 -----------------------------------------------------------------------
 Hartree-Fock
 using 8 threads for integral computing
 -------------------------------------------------------
 OpenMP Integral computing Module                
 Release: version 1.0, May 2013, Q-Chem Inc. Pittsburgh 
 -------------------------------------------------------
 A unrestricted SCF calculation will be
 performed using DIIS
 SCF converges when DIIS error is below 1.0e-08
 ---------------------------------------
  Cycle       Energy         DIIS error
 ---------------------------------------
    1    -695.7874975986      4.43e-04  
    2    -695.8026283214      1.09e-04  
    3    -695.8043042231      3.91e-05  
    4    -695.8045468323      1.79e-05  
    5    -695.8046090511      7.12e-06  
    6    -695.8046256996      3.95e-06  
    7    -695.8046306990      2.61e-06  
    8    -695.8046339863      1.46e-06  
    9    -695.8046352072      6.63e-07  
   10    -695.8046354026      2.94e-07  
   11    -695.8046354311      1.22e-07  
   12    -695.8046354346      5.36e-08  
   13    -695.8046354355      2.45e-08  
   14    -695.8046354357      1.33e-08  
   15    -695.8046354358      7.54e-09  Convergence criterion met
 ---------------------------------------
 SCF time:   CPU 135.01s  wall 18.00s 
<S^2> =          3.277995590
 SCF   energy in the final basis set =     -695.8046354358
 Total energy in the final basis set =     -695.8046354358

 --------------------------------------------------------------

                    Orbital Energies (a.u.)
 --------------------------------------------------------------

 Alpha MOs
 -- Occupied --
-26.3317 -26.3317 -11.3322 -11.3322 -11.2774 -11.2667 -11.2654 -11.2631
-11.2631 -11.2625 -11.2528 -11.2528 -11.2490 -11.2363 -11.2362  -1.6422
 -1.6417  -1.1893  -1.1655  -1.0930  -1.0456  -1.0437  -1.0295  -0.9641
 -0.8702  -0.8685  -0.8360  -0.8054  -0.7511  -0.7487  -0.7146  -0.7049
 -0.6978  -0.6937  -0.6890  -0.6754  -0.6481  -0.6391  -0.6094  -0.5985
 -0.5974  -0.5612  -0.5576  -0.5445  -0.5258  -0.5197  -0.5075  -0.4443
 -0.4166  -0.3921  -0.3810  -0.3476  -0.3222
 -- Virtual --
  0.0366   0.0474   0.0479   0.0564   0.0606   0.0710   0.0716   0.0903
  0.1061   0.1100   0.1165   0.1173   0.1214   0.1247   0.1329   0.1401
  0.1470   0.1496   0.1566   0.1595   0.1648   0.1649   0.1697   0.1862
  0.1872   0.1879   0.1922   0.1967   0.1968   0.1969   0.2058   0.2060
  0.2118   0.2143   0.2172   0.2184   0.2294   0.2322   0.2327   0.2340
  0.2373   0.2392   0.2448   0.2490   0.2550   0.2637   0.2693   0.2700
  0.2871   0.2938   0.2980   0.3069   0.3069   0.3151   0.3284   0.3298
  0.3456   0.3519   0.3553   0.3651   0.3712   0.3821   0.3849   0.3921
  0.3952   0.4160   0.4207   0.4331   0.4461   0.4590   0.4592   0.4668
  0.4692   0.4699   0.4730   0.4852   0.4983   0.5030   0.5085   0.5199
  0.5217   0.5302   0.5429   0.5510   0.5637   0.5665   0.5841   0.5849
  0.6004   0.6281   0.6804   0.7657   0.7751   0.7875   0.8118   0.8316
  0.8740   0.9019   0.9043   0.9185   0.9282   0.9323   0.9422   0.9438
  0.9590   0.9667   0.9703   0.9891   0.9945   1.0022   1.0032   1.0212
  1.0296   1.0348   1.0465   1.0504   1.0576   1.0628   1.0774   1.0785
  1.0972   1.1054   1.1378   1.1629   1.1730   1.1916   1.2034   1.2314
  1.2428   1.2470   1.2484   1.2718   1.2878   1.2933   1.3147   1.3232
  1.3391   1.3398   1.3649   1.3778   1.3857   1.4057   1.4108   1.4568
  1.4615   1.4754   1.4900   1.4906   1.4980   1.5390   1.5778   1.5863
  1.6008   1.6063   1.6168   1.6230   1.6274   1.6413   1.6511   1.6712
  1.6817   1.6879   1.6912   1.7224   1.8038   1.8841   1.9357   1.9466
  1.9555   1.9610   1.9776   1.9893   2.0401   2.0432   2.0514   2.0672
  2.0833   2.0861   2.0939   2.1033   2.1071   2.1571   2.1617   2.1685
  2.1771   2.2049   2.2090   2.2153   2.2334   2.2430   2.2678   2.2743
  2.2782   2.2912   2.2963   2.3018   2.3264   2.3428   2.3563   2.3788
  2.3936   2.4015   2.4363   2.5490   2.5523   2.5564   2.5780   2.5978
  2.6121   2.6216   2.6564   2.6593   2.6847   2.6973   2.6980   2.7013
  2.7182   2.7269   2.7274   2.7414   2.7508   2.7925   2.7949   2.8170
  2.8463   2.8562   2.8674   2.9094   2.9100   2.9153   2.9244   2.9564
  2.9617   2.9665   2.9740   2.9750   3.0049   3.0731   3.0864   3.1057
  3.1523   3.1637   3.1719   3.1828   3.3442   3.4162   3.4366   3.4514
  3.4900   3.5231   3.5494   3.6216   3.6586   3.6762   3.6867   3.7217
  3.7695   3.8396   3.8402   3.8686   3.9401   4.1721   4.3027   4.6959
  4.7077   4.7162   4.7226   4.7273   4.7584   4.8058   4.9131   4.9138
  4.9310   5.0359   5.2604   5.3868   6.6499   6.7555

 Beta MOs
 -- Occupied --
-26.3337 -26.3337 -11.3464 -11.3464 -11.2952 -11.2805 -11.2507 -11.2498
-11.2498 -11.2465 -11.2464 -11.2362 -11.2362 -11.2344 -11.2246  -1.6482
 -1.6477  -1.1790  -1.1578  -1.0662  -1.0375  -1.0340  -1.0231  -0.9017
 -0.8642  -0.8519  -0.8291  -0.7965  -0.7451  -0.7409  -0.7235  -0.7165
 -0.7008  -0.6923  -0.6899  -0.6676  -0.6444  -0.6262  -0.6059  -0.5965
 -0.5877  -0.5533  -0.5478  -0.5227  -0.5125  -0.5105  -0.5027  -0.4039
 -0.3780  -0.3648  -0.3614
 -- Virtual --
  0.0371   0.0477   0.0478   0.0570   0.0601   0.0700   0.0718   0.0743
  0.0898   0.0941   0.1046   0.1060   0.1116   0.1184   0.1257   0.1362
  0.1418   0.1424   0.1429   0.1503   0.1570   0.1643   0.1708   0.1729
  0.1801   0.1869   0.1907   0.1950   0.1970   0.1980   0.1982   0.2051
  0.2062   0.2117   0.2158   0.2193   0.2194   0.2241   0.2318   0.2336
  0.2359   0.2396   0.2411   0.2438   0.2552   0.2586   0.2643   0.2683
  0.2732   0.2775   0.2903   0.2960   0.2979   0.3080   0.3157   0.3162
  0.3381   0.3391   0.3480   0.3568   0.3622   0.3653   0.3773   0.3828
  0.3858   0.4004   0.4129   0.4244   0.4292   0.4337   0.4543   0.4613
  0.4668   0.4691   0.4693   0.4731   0.4792   0.4905   0.5015   0.5025
  0.5135   0.5222   0.5303   0.5430   0.5435   0.5546   0.5631   0.5699
  0.5886   0.5982   0.6023   0.6378   0.6934   0.7718   0.7813   0.7902
  0.8127   0.8418   0.8807   0.9078   0.9208   0.9253   0.9308   0.9331
  0.9623   0.9763   0.9789   0.9927   0.9996   1.0071   1.0073   1.0130
  1.0149   1.0175   1.0324   1.0340   1.0411   1.0561   1.0680   1.0699
  1.0870   1.0874   1.1248   1.1329   1.1432   1.1704   1.1937   1.1953
  1.2120   1.2347   1.2398   1.2539   1.2563   1.2784   1.2870   1.2937
  1.3168   1.3313   1.3336   1.3423   1.3765   1.3800   1.3844   1.4160
  1.4175   1.4612   1.4787   1.4838   1.4928   1.5029   1.5062   1.5539
  1.5779   1.5892   1.6031   1.6078   1.6104   1.6289   1.6394   1.6509
  1.6606   1.6799   1.6898   1.6904   1.6942   1.7242   1.8117   1.8898
  1.9491   1.9514   1.9775   1.9856   2.0341   2.0463   2.0481   2.0662
  2.0691   2.0709   2.0901   2.0909   2.0920   2.1050   2.1113   2.1582
  2.1736   2.1879   2.1997   2.2127   2.2197   2.2264   2.2338   2.2537
  2.2692   2.2784   2.2794   2.2879   2.2964   2.3142   2.3280   2.3376
  2.3616   2.3808   2.3977   2.4062   2.4246   2.5553   2.5576   2.5616
  2.5816   2.6033   2.6167   2.6242   2.6628   2.6685   2.6911   2.6959
  2.7002   2.7072   2.7176   2.7287   2.7367   2.7431   2.7471   2.7875
  2.7983   2.8203   2.8563   2.8587   2.8742   2.9157   2.9170   2.9200
  2.9263   2.9563   2.9671   2.9730   2.9779   2.9822   3.0093   3.0743
  3.0895   3.1002   3.1507   3.1687   3.1751   3.1819   3.3483   3.4176
  3.4438   3.4530   3.4970   3.5241   3.5574   3.6187   3.6554   3.6764
  3.6870   3.7234   3.7734   3.8427   3.8429   3.8726   3.9410   4.1761
  4.3049   4.6974   4.7101   4.7167   4.7254   4.7346   4.7589   4.8259
  4.9118   4.9158   4.9347   5.0484   5.2622   5.3939   6.6488   6.7539
 --------------------------------------------------------------

          Ground-State Mulliken Net Atomic Charges

     Atom                 Charge (a.u.)    Spin (a.u.)
  --------------------------------------------------------
      1 H                     0.149180       0.060598
      2 C                     0.163277      -0.972089
      3 C                    -0.405649       1.097806
      4 H                     0.130867      -0.065527
      5 C                     0.170035      -0.970935
      6 H                     0.149150       0.060556
      7 C                    -0.712259       1.119128
      8 H                     0.130072      -0.072115
      9 H                     0.130156      -0.072061
     10 C                    -0.713122       1.120430
     11 C                     0.744727      -1.197924
     12 C                    -0.340788       0.978804
     13 C                    -0.115920      -0.723931
     14 C                     0.438892       0.882088
     15 C                    -0.111220      -0.723573
     16 C                    -0.339872       0.978881
     17 F                    -0.406367       0.007842
     18 F                    -0.406351       0.007858
     19 H                     0.170339      -0.073576
     20 H                     0.202475      -0.067012
     21 H                     0.170059      -0.073683
     22 C                     0.746000      -1.233681
     23 C                     0.056321       1.932115
  --------------------------------------------------------
  Sum of atomic charges =     0.000000
  Sum of spin   charges =     2.000000

 -----------------------------------------------------------------
                    Cartesian Multipole Moments
 -----------------------------------------------------------------
    Charge (ESU x 10^10)
                -0.0000
    Dipole Moment (Debye)
         X       2.3216      Y      -0.0011      Z      -0.0021
       Tot       2.3216
    Quadrupole Moments (Debye-Ang)
        XX     -81.8506     XY       0.0065     YY     -88.8978
        XZ       0.0017     YZ       4.9955     ZZ     -87.1437
    Octopole Moments (Debye-Ang^2)
       XXX       4.6772    XXY      -0.1796    XYY      11.9356
       YYY       0.0960    XXZ      -0.0153    XYZ       9.3191
       YYZ      -0.0200    XZZ     -14.8200    YZZ      -0.0560
       ZZZ      -0.0547
    Hexadecapole Moments (Debye-Ang^3)
      XXXX   -4489.8868   XXXY       1.0133   XXYY   -1055.3397
      XYYY      -0.3601   YYYY    -782.3135   XXXZ       0.6924
      XXYZ      87.8042   XYYZ       0.2794   YYYZ      12.8663
      XXZZ    -877.2679   XYZZ      -0.0523   YYZZ    -158.2821
      XZZZ       0.7619   YZZZ       5.4929   ZZZZ    -253.1207
 -----------------------------------------------------------------
 Calculating analytic gradient of the SCF energy
 Gradient of SCF Energy
            1           2           3           4           5           6
    1  -0.0002045   0.0035074  -0.0016413  -0.0002978   0.0034980  -0.0002082
    2   0.0004169  -0.0003324   0.0000067   0.0000031   0.0002901  -0.0004191
    3   0.0003381  -0.0002186   0.0000084   0.0000034   0.0001874  -0.0003406
            7           8           9          10          11          12
    1  -0.0070218   0.0011441   0.0011391  -0.0069741  -0.0174507   0.0070500
    2  -0.0014021  -0.0001299   0.0001296   0.0013913   0.0002693   0.0029605
    3  -0.0030365  -0.0001765   0.0001691   0.0030196   0.0000565  -0.0019904
           13          14          15          16          17          18
    1  -0.0053965   0.0043450  -0.0053886   0.0070852   0.0009600   0.0009393
    2   0.0000516   0.0000053  -0.0000881  -0.0029824  -0.0015647   0.0015554
    3  -0.0000836   0.0000050   0.0000441   0.0020253   0.0003562  -0.0003435
           19          20          21          22          23
    1  -0.0006400  -0.0005721  -0.0006435   0.0177844  -0.0010139
    2  -0.0000130  -0.0000014   0.0000192   0.0002441  -0.0004101
    3  -0.0000342  -0.0000081   0.0000531   0.0001118  -0.0001458
 Max gradient component =       1.778E-02
 RMS gradient           =       3.777E-03
 Gradient time:  CPU 41.24 s  wall 5.49 s
 Geometry Optimization Parameters
   NAtoms,    NIC,     NZ,  NCons,   NDum,   NFix, NCnnct, MaxDiis
       23     159       0       0       0       0       0       0

 Cartesian Hessian Update
 Hessian updated using BFGS update


** GEOMETRY OPTIMIZATION IN DELOCALIZED INTERNAL COORDINATES **
   Searching for a Minimum

   Optimization Cycle:   2

                       Coordinates (Angstroms)
     ATOM                X               Y               Z
      1  H         4.7055106975   -1.5795015625   -1.4606935056
      2  C         4.1718296228   -0.8940487271   -0.8279448379
      3  C         4.8789335058   -0.0041556833   -0.0053740856
      4  H         5.9538317736   -0.0072726123   -0.0079124844
      5  C         4.1809989063    0.8898944829    0.8204903942
      6  H         4.7218054577    1.5722334864    1.4505409498
      7  C         2.7853360610    0.9006811564    0.8286143243
      8  H         2.2583933474    1.5871096880    1.4646819144
      9  H         2.2419516095   -1.5795713485   -1.4628280847
     10  C         2.7761195664   -0.8964813523   -0.8291799218
     11  C        -0.7595082184    0.0044679013    0.0035576210
     12  C        -1.4798464329   -1.1893836844    0.2877846449
     13  C        -2.8654428757   -1.1554656365    0.2773336177
     14  C        -3.5966780055   -0.0036540319   -0.0004649072
     15  C        -2.8710873142    1.1523388637   -0.2757199260
     16  C        -1.4856764315    1.1942609600   -0.2819565851
     17  F        -3.5474760936    2.2667523444   -0.5429247121
     18  F        -3.5363081859   -2.2736418788    0.5428100455
     19  H        -0.9707774972   -2.1068956560    0.5111686382
     20  H        -4.6702765762   -0.0066805734   -0.0022765289
     21  H        -0.9812450009    2.1148133822   -0.5033200865
     22  C         2.0524766417    0.0042185914    0.0016514914
     23  C         0.6444464055    0.0084451522    0.0050019967
   Point Group: c1    Number of degrees of freedom:    63


   Energy is   -695.804635436

 Hessian updated using BFGS update

 59 Hessian modes will be used to form the next step
  Hessian Eigenvalues:
     0.001925    0.016465    0.016558    0.022915    0.022920    0.022931
     0.022948    0.022981    0.023005    0.023044    0.023072    0.023083
     0.023210    0.023244    0.023465    0.023667    0.023723    0.023841
     0.023975    0.158091    0.160000    0.160000    0.160043    0.183539
     0.196023    0.219133    0.220000    0.226615    0.234856    0.234965
     0.239431    0.249992    0.249999    0.250000    0.250298    0.321370
     0.351509    0.351526    0.351619    0.351690    0.352533    0.352857
     0.355935    0.371120    0.411649    0.419811    0.423460    0.427314
     0.437469    0.455356    0.462825    0.464424    0.465011    0.466460
     0.469301    0.475247    0.478637    0.573406    0.592721

 Minimum search - taking simple RFO step
 Searching for Lamda that Minimizes Along All modes
 Value Taken    Lamda =  -0.00332159
 Calculated Step too Large.  Step scaled by  0.466778
 Step Taken.  Stepsize is  0.300000

                             Maximum     Tolerance    Cnvgd?
         Gradient           0.011077      0.000300      NO
         Displacement       0.270801      0.001200      NO
         Energy change     -0.007008      0.000001      NO


 New Cartesian Coordinates Obtained by Inverse Iteration

 Displacement from previous Coordinates is:  1.002567
 ----------------------------------------------------------------
             Standard Nuclear Orientation (Angstroms)
    I     Atom           X                Y                Z
 ----------------------------------------------------------------
    1      H       4.7006627914    -1.4630443909    -1.5779366329
    2      C       4.1672316341    -0.8280965242    -0.8945607569
    3      C       4.8756564463    -0.0039986880    -0.0054247347
    4      H       5.9501696722    -0.0070434399    -0.0079441262
    5      C       4.1761829831     0.8241584882     0.8869893786
    6      H       4.7165134914     1.4561037021     1.5677193034
    7      C       2.7821154066     0.8354088873     0.8964623205
    8      H       2.2532453394     1.4699851730     1.5827313061
    9      H       2.2372572465    -1.4625749743    -1.5811829519
   10      C       2.7730988498    -0.8312772016    -0.8972876080
   11      C      -0.7503425337     0.0042912943     0.0032218929
   12      C      -1.4764713554    -1.1679189627     0.3731818309
   13      C      -2.8600099451    -1.1329101071     0.3600240075
   14      C      -3.5940710070    -0.0036554893     0.0000453849
   15      C      -2.8654201248     1.1297125461    -0.3579676714
   16      C      -1.4820704450     1.1725221269    -0.3677965757
   17      F      -3.5421769513     2.2224566832    -0.7045932821
   18      F      -3.5315037633    -2.2293400191     0.7052549697
   19      H      -0.9675121327    -2.0664728858     0.6621614035
   20      H      -4.6666586700    -0.0066314162    -0.0013585805
   21      H      -0.9774981831     2.0740917424    -0.6550456706
   22      C       2.0438839196     0.0041222732     0.0014913122
   23      C       0.6450282943     0.0085744442     0.0048554530
 ----------------------------------------------------------------
 Molecular Point Group                 C1    NOp =  1
 Largest Abelian Subgroup              C1    NOp =  1
 Nuclear Repulsion Energy =         836.23289053 hartrees
 There are       53 alpha and       51 beta electrons
 Applying Cartesian multipole field
    Component          Value
    ---------          -----
     (2,0,0)        1.00000E-12
     (0,2,0)        2.00000E-11
     (0,0,2)       -3.00000E-11
 Nucleus-field energy     =     0.0000000102 hartrees
 Requested basis set is 6-31++G(d,p)
 There are 107 shells and 333 basis functions
 A cutoff of  1.0D-11 yielded   4482 shell pairs
 There are     44411 function pairs
 Smallest overlap matrix eigenvalue = 3.28E-08

 Q-Chem warning in module stvman/mkSTV.C, line 318:

 Overlap eigenvalue is smaller than square root of threshold
 Use THRESH >= 12 to get rid of this warning

 Linear dependence detected in AO basis
 Tighter screening thresholds may be required for diffuse basis sets
 Use S2THRESH > 14 and THRESH = 14 in case of SCF convergence issues
 Number of orthogonalized atomic orbitals = 331
 Maximum deviation from orthogonality = 8.746E-11
 Guess MOs from SCF MO coefficient file

 -----------------------------------------------------------------------
  General SCF calculation program by
  Eric Jon Sundstrom, Paul Horn, Yuezhi Mao, Dmitri Zuev, Alec White,
  David Stuck, Shaama M.S., Shane Yost, Joonho Lee, David Small,
  Daniel Levine, Susi Lehtola, Hugh Burton, Evgeny Epifanovsky,
  Bang C. Huynh
 -----------------------------------------------------------------------
 Hartree-Fock
 using 8 threads for integral computing
 -------------------------------------------------------
 OpenMP Integral computing Module                
 Release: version 1.0, May 2013, Q-Chem Inc. Pittsburgh 
 -------------------------------------------------------
 A unrestricted SCF calculation will be
 performed using DIIS
 SCF converges when DIIS error is below 1.0e-08
 ---------------------------------------
  Cycle       Energy         DIIS error
 ---------------------------------------
    1    -695.7760498280      5.65e-04  
    2    -695.8024842908      1.43e-04  
    3    -695.8056250396      4.28e-05  
    4    -695.8059907370      1.29e-05  
    5    -695.8060171550      5.76e-06  
    6    -695.8060233006      1.89e-06  
    7    -695.8060241535      8.94e-07  
    8    -695.8060243283      5.24e-07  
    9    -695.8060244246      3.19e-07  
   10    -695.8060244687      1.88e-07  
   11    -695.8060244873      8.91e-08  
   12    -695.8060244906      4.15e-08  
   13    -695.8060244910      1.68e-08  
   14    -695.8060244909      7.11e-09  Convergence criterion met
 ---------------------------------------
 SCF time:   CPU 126.38s  wall 17.00s 
<S^2> =          3.279933845
 SCF   energy in the final basis set =     -695.8060244909
 Total energy in the final basis set =     -695.8060244909

 --------------------------------------------------------------

                    Orbital Energies (a.u.)
 --------------------------------------------------------------

 Alpha MOs
 -- Occupied --
-26.3313 -26.3313 -11.3320 -11.3320 -11.2773 -11.2668 -11.2658 -11.2633
-11.2632 -11.2624 -11.2530 -11.2529 -11.2492 -11.2362 -11.2361  -1.6417
 -1.6411  -1.1890  -1.1651  -1.0941  -1.0458  -1.0436  -1.0297  -0.9651
 -0.8699  -0.8693  -0.8354  -0.8053  -0.7508  -0.7481  -0.7147  -0.7049
 -0.6974  -0.6934  -0.6886  -0.6763  -0.6482  -0.6390  -0.6094  -0.5984
 -0.5973  -0.5608  -0.5587  -0.5427  -0.5272  -0.5210  -0.5067  -0.4426
 -0.4210  -0.3932  -0.3820  -0.3434  -0.3230
 -- Virtual --
  0.0365   0.0472   0.0484   0.0564   0.0597   0.0700   0.0711   0.0893
  0.1062   0.1104   0.1153   0.1178   0.1208   0.1271   0.1358   0.1404
  0.1473   0.1499   0.1543   0.1581   0.1628   0.1650   0.1701   0.1865
  0.1868   0.1879   0.1940   0.1967   0.1968   0.1971   0.2046   0.2053
  0.2097   0.2127   0.2153   0.2177   0.2274   0.2319   0.2322   0.2338
  0.2360   0.2386   0.2455   0.2476   0.2531   0.2600   0.2691   0.2736
  0.2898   0.2974   0.2977   0.3092   0.3094   0.3179   0.3273   0.3288
  0.3437   0.3523   0.3554   0.3596   0.3713   0.3772   0.3854   0.3901
  0.3968   0.4141   0.4222   0.4330   0.4470   0.4569   0.4603   0.4668
  0.4691   0.4704   0.4730   0.4852   0.5004   0.5029   0.5083   0.5203
  0.5223   0.5301   0.5437   0.5517   0.5641   0.5655   0.5847   0.5849
  0.5997   0.6318   0.6779   0.7616   0.7754   0.7843   0.8126   0.8292
  0.8732   0.9048   0.9069   0.9169   0.9278   0.9381   0.9416   0.9481
  0.9600   0.9676   0.9699   0.9890   0.9942   1.0022   1.0026   1.0292
  1.0313   1.0395   1.0495   1.0566   1.0614   1.0616   1.0803   1.0829
  1.0977   1.1055   1.1370   1.1550   1.1642   1.1922   1.2012   1.2313
  1.2425   1.2480   1.2497   1.2721   1.2869   1.2939   1.3178   1.3230
  1.3378   1.3437   1.3642   1.3790   1.3859   1.4024   1.4124   1.4557
  1.4625   1.4749   1.4828   1.4902   1.4968   1.5404   1.5796   1.5864
  1.6012   1.6067   1.6161   1.6225   1.6275   1.6405   1.6517   1.6712
  1.6819   1.6883   1.6930   1.7250   1.8218   1.8789   1.9299   1.9484
  1.9559   1.9611   1.9776   1.9917   2.0396   2.0428   2.0515   2.0664
  2.0789   2.0867   2.0937   2.1035   2.1061   2.1579   2.1592   2.1670
  2.1759   2.2063   2.2088   2.2150   2.2338   2.2428   2.2698   2.2747
  2.2774   2.2910   2.2959   2.3047   2.3359   2.3386   2.3497   2.3752
  2.3960   2.4025   2.4364   2.5520   2.5564   2.5566   2.5714   2.5964
  2.6132   2.6239   2.6550   2.6590   2.6870   2.6983   2.6986   2.7009
  2.7178   2.7268   2.7268   2.7394   2.7508   2.7947   2.7957   2.8225
  2.8459   2.8544   2.8669   2.9036   2.9097   2.9149   2.9248   2.9549
  2.9607   2.9652   2.9732   2.9770   3.0059   3.0732   3.0829   3.1082
  3.1529   3.1663   3.1706   3.1839   3.3586   3.4165   3.4312   3.4518
  3.4940   3.5230   3.5544   3.6216   3.6582   3.6767   3.6871   3.7260
  3.7641   3.8404   3.8422   3.8688   3.9408   4.1711   4.3022   4.6957
  4.7126   4.7155   4.7227   4.7349   4.7614   4.8064   4.9122   4.9170
  4.9293   5.0361   5.2625   5.3853   6.6459   6.7513

 Beta MOs
 -- Occupied --
-26.3333 -26.3333 -11.3462 -11.3462 -11.2950 -11.2803 -11.2509 -11.2497
-11.2497 -11.2465 -11.2465 -11.2363 -11.2362 -11.2344 -11.2255  -1.6477
 -1.6472  -1.1782  -1.1571  -1.0668  -1.0373  -1.0341  -1.0231  -0.9031
 -0.8634  -0.8531  -0.8283  -0.7965  -0.7444  -0.7412  -0.7231  -0.7161
 -0.7007  -0.6920  -0.6904  -0.6682  -0.6445  -0.6260  -0.6061  -0.5964
 -0.5870  -0.5525  -0.5490  -0.5212  -0.5138  -0.5103  -0.5015  -0.4019
 -0.3808  -0.3652  -0.3619
 -- Virtual --
  0.0369   0.0476   0.0483   0.0569   0.0594   0.0692   0.0713   0.0739
  0.0892   0.0913   0.1031   0.1060   0.1131   0.1175   0.1251   0.1358
  0.1420   0.1436   0.1447   0.1505   0.1567   0.1648   0.1704   0.1707
  0.1778   0.1858   0.1919   0.1951   0.1972   0.1979   0.1983   0.2034
  0.2053   0.2112   0.2151   0.2166   0.2202   0.2233   0.2314   0.2330
  0.2383   0.2388   0.2402   0.2457   0.2527   0.2587   0.2601   0.2677
  0.2721   0.2796   0.2932   0.2978   0.2989   0.3099   0.3173   0.3186
  0.3375   0.3396   0.3455   0.3569   0.3577   0.3633   0.3748   0.3808
  0.3868   0.4004   0.4119   0.4228   0.4297   0.4337   0.4550   0.4591
  0.4674   0.4695   0.4696   0.4725   0.4797   0.4911   0.5026   0.5030
  0.5125   0.5226   0.5317   0.5431   0.5436   0.5556   0.5634   0.5696
  0.5899   0.5981   0.6036   0.6409   0.6895   0.7677   0.7819   0.7878
  0.8130   0.8396   0.8799   0.9101   0.9226   0.9285   0.9298   0.9324
  0.9637   0.9767   0.9830   0.9938   0.9989   1.0060   1.0073   1.0149
  1.0189   1.0223   1.0365   1.0382   1.0452   1.0626   1.0686   1.0718
  1.0842   1.0938   1.1243   1.1293   1.1424   1.1724   1.1830   1.1958
  1.2088   1.2342   1.2396   1.2544   1.2567   1.2800   1.2859   1.2943
  1.3196   1.3309   1.3326   1.3464   1.3758   1.3815   1.3841   1.4112
  1.4194   1.4605   1.4795   1.4837   1.4925   1.4988   1.5022   1.5541
  1.5782   1.5922   1.6038   1.6082   1.6106   1.6291   1.6392   1.6505
  1.6606   1.6805   1.6902   1.6910   1.6957   1.7263   1.8299   1.8860
  1.9495   1.9514   1.9776   1.9861   2.0348   2.0451   2.0477   2.0633
  2.0678   2.0694   2.0875   2.0904   2.0910   2.1050   2.1096   2.1579
  2.1717   2.1849   2.1977   2.2133   2.2201   2.2263   2.2343   2.2538
  2.2714   2.2776   2.2797   2.2880   2.2960   2.3177   2.3343   2.3373
  2.3561   2.3741   2.4036   2.4062   2.4248   2.5551   2.5578   2.5663
  2.5752   2.6023   2.6179   2.6270   2.6621   2.6677   2.6929   2.6951
  2.7008   2.7086   2.7171   2.7281   2.7360   2.7408   2.7480   2.7883
  2.8020   2.8257   2.8558   2.8575   2.8749   2.9108   2.9155   2.9201
  2.9267   2.9550   2.9650   2.9730   2.9774   2.9842   3.0106   3.0746
  3.0859   3.1033   3.1509   3.1706   3.1740   3.1829   3.3635   3.4180
  3.4382   3.4534   3.4993   3.5239   3.5641   3.6188   3.6550   3.6769
  3.6874   3.7279   3.7678   3.8436   3.8449   3.8729   3.9417   4.1751
  4.3044   4.6973   4.7145   4.7164   4.7258   4.7410   4.7621   4.8269
  4.9144   4.9154   4.9328   5.0490   5.2644   5.3928   6.6448   6.7497
 --------------------------------------------------------------

          Ground-State Mulliken Net Atomic Charges

     Atom                 Charge (a.u.)    Spin (a.u.)
  --------------------------------------------------------
      1 H                     0.148751       0.060520
      2 C                     0.150179      -0.983545
      3 C                    -0.390868       1.116392
      4 H                     0.131322      -0.066211
      5 C                     0.156555      -0.982438
      6 H                     0.148737       0.060472
      7 C                    -0.650424       1.134078
      8 H                     0.135432      -0.072636
      9 H                     0.135565      -0.072605
     10 C                    -0.649541       1.135427
     11 C                     0.692209      -1.212779
     12 C                    -0.285179       0.985814
     13 C                    -0.125473      -0.726951
     14 C                     0.449504       0.893116
     15 C                    -0.120959      -0.726680
     16 C                    -0.284568       0.986113
     17 F                    -0.406303       0.007934
     18 F                    -0.406271       0.007951
     19 H                     0.174631      -0.074088
     20 H                     0.202419      -0.068064
     21 H                     0.174369      -0.074180
     22 C                     0.707329      -1.254716
     23 C                    -0.087418       1.927076
  --------------------------------------------------------
  Sum of atomic charges =    -0.000000
  Sum of spin   charges =     2.000000

 -----------------------------------------------------------------
                    Cartesian Multipole Moments
 -----------------------------------------------------------------
    Charge (ESU x 10^10)
                -0.0000
    Dipole Moment (Debye)
         X       2.3292      Y      -0.0014      Z      -0.0023
       Tot       2.3292
    Quadrupole Moments (Debye-Ang)
        XX     -81.8857     XY       0.0045     YY     -89.5149
        XZ       0.0014     YZ       5.1613     ZZ     -86.5694
    Octopole Moments (Debye-Ang^2)
       XXX       4.3871    XXY      -0.1846    XYY       8.5973
       YYY       0.0883    XXZ       0.0060    XYZ       7.5220
       YYZ      -0.0322    XZZ     -11.5115    YZZ      -0.0538
       ZZZ      -0.0589
    Hexadecapole Moments (Debye-Ang^3)
      XXXX   -4477.5197   XXXY       0.8448   XXYY   -1052.4235
      XYYY      -0.3931   YYYY    -744.1480   XXXZ       0.7120
      XXYZ     100.3221   XYYZ       0.3311   YYYZ      28.1025
      XXZZ    -876.7374   XYZZ      -0.0756   YYZZ    -159.1913
      XZZZ       0.8077   YZZZ      25.5379   ZZZZ    -291.1827
 -----------------------------------------------------------------
 Calculating analytic gradient of the SCF energy
 Gradient of SCF Energy
            1           2           3           4           5           6
    1  -0.0003358   0.0024846  -0.0005154  -0.0005227   0.0024890  -0.0003419
    2   0.0004417  -0.0004312   0.0000068   0.0000040   0.0003972  -0.0004400
    3   0.0004535  -0.0004600   0.0000084   0.0000047   0.0004328  -0.0004534
            7           8           9          10          11          12
    1  -0.0044096   0.0008423   0.0008414  -0.0043654  -0.0106793   0.0043135
    2  -0.0001049  -0.0003142   0.0003158   0.0000967   0.0002122   0.0007150
    3  -0.0019445  -0.0003373   0.0003308   0.0019277   0.0000513  -0.0015095
           13          14          15          16          17          18
    1  -0.0031700   0.0015186  -0.0031706   0.0043492   0.0008981   0.0008839
    2  -0.0001581   0.0000049   0.0001255  -0.0007316  -0.0013892   0.0013903
    3   0.0000496   0.0000020  -0.0000708   0.0015296   0.0004421  -0.0004339
           19          20          21          22          23
    1  -0.0006559   0.0000918  -0.0006573   0.0108482  -0.0007366
    2   0.0003666   0.0000016  -0.0003618   0.0001955  -0.0003430
    3  -0.0001047  -0.0000054   0.0001218   0.0000889  -0.0001238
 Max gradient component =       1.085E-02
 RMS gradient           =       2.308E-03
 Gradient time:  CPU 41.27 s  wall 5.49 s
 Geometry Optimization Parameters
   NAtoms,    NIC,     NZ,  NCons,   NDum,   NFix, NCnnct, MaxDiis
       23     159       0       0       0       0       0       0

 Cartesian Hessian Update
 Hessian updated using BFGS update


** GEOMETRY OPTIMIZATION IN DELOCALIZED INTERNAL COORDINATES **
   Searching for a Minimum

   Optimization Cycle:   3

                       Coordinates (Angstroms)
     ATOM                X               Y               Z
      1  H         4.7006627914   -1.4630443909   -1.5779366329
      2  C         4.1672316341   -0.8280965242   -0.8945607569
      3  C         4.8756564463   -0.0039986880   -0.0054247347
      4  H         5.9501696722   -0.0070434399   -0.0079441262
      5  C         4.1761829831    0.8241584882    0.8869893786
      6  H         4.7165134914    1.4561037021    1.5677193034
      7  C         2.7821154066    0.8354088873    0.8964623205
      8  H         2.2532453394    1.4699851730    1.5827313061
      9  H         2.2372572465   -1.4625749743   -1.5811829519
     10  C         2.7730988498   -0.8312772016   -0.8972876080
     11  C        -0.7503425337    0.0042912943    0.0032218929
     12  C        -1.4764713554   -1.1679189627    0.3731818309
     13  C        -2.8600099451   -1.1329101071    0.3600240075
     14  C        -3.5940710070   -0.0036554893    0.0000453849
     15  C        -2.8654201248    1.1297125461   -0.3579676714
     16  C        -1.4820704450    1.1725221269   -0.3677965757
     17  F        -3.5421769513    2.2224566832   -0.7045932821
     18  F        -3.5315037633   -2.2293400191    0.7052549697
     19  H        -0.9675121327   -2.0664728858    0.6621614035
     20  H        -4.6666586700   -0.0066314162   -0.0013585805
     21  H        -0.9774981831    2.0740917424   -0.6550456706
     22  C         2.0438839196    0.0041222732    0.0014913122
     23  C         0.6450282943    0.0085744442    0.0048554530
   Point Group: c1    Number of degrees of freedom:    63


   Energy is   -695.806024491

 Hessian updated using BFGS update

 62 Hessian modes will be used to form the next step
  Hessian Eigenvalues:
     0.001633    0.016465    0.016558    0.022916    0.022923    0.022931
     0.022950    0.022981    0.023006    0.023044    0.023072    0.023083
     0.023218    0.023244    0.023466    0.023667    0.023724    0.023841
     0.023975    0.157715    0.160000    0.160000    0.160000    0.160000
     0.160001    0.160135    0.183539    0.195890    0.219435    0.220000
     0.229299    0.234860    0.234965    0.240818    0.249999    0.250000
     0.250012    0.250179    0.298763    0.351499    0.351518    0.351630
     0.351691    0.352584    0.352857    0.355973    0.369147    0.411632
     0.419811    0.423420    0.427314    0.436645    0.456885    0.462825
     0.464425    0.465011    0.468292    0.469473    0.475249    0.478666
     0.573406    0.590086

 Minimum search - taking simple RFO step
 Searching for Lamda that Minimizes Along All modes
 Value Taken    Lamda =  -0.00267724
 Calculated Step too Large.  Step scaled by  0.421206
 Step Taken.  Stepsize is  0.300000

                             Maximum     Tolerance    Cnvgd?
         Gradient           0.006630      0.000300      NO
         Displacement       0.270710      0.001200      NO
         Energy change     -0.001389      0.000001      NO


 New Cartesian Coordinates Obtained by Inverse Iteration

 Displacement from previous Coordinates is:  1.002669
 ----------------------------------------------------------------
             Standard Nuclear Orientation (Angstroms)
    I     Atom           X                Y                Z
 ----------------------------------------------------------------
    1      H       4.6961566315    -1.3382840375    -1.6860847395
    2      C       4.1624809544    -0.7573753480    -0.9558433507
    3      C       4.8718221961    -0.0041078567    -0.0055639306
    4      H       5.9464978569    -0.0073077087    -0.0081917618
    5      C       4.1716799655     0.7534102660     0.9481362012
    6      H       4.7124224787     1.3311723634     1.6756666169
    7      C       2.7789951131     0.7647510071     0.9593258351
    8      H       2.2488445994     1.3447501322     1.6919877520
    9      H       2.2324643064    -1.3369316739    -1.6902923052
   10      C       2.7697144760    -0.7603380376    -0.9601053006
   11      C      -0.7430906630     0.0044497262     0.0031054663
   12      C      -1.4729401695    -1.1393802189     0.4570245951
   13      C      -2.8551083915    -1.1048496931     0.4407520970
   14      C      -3.5904500106    -0.0039018249     0.0002702639
   15      C      -2.8606394950     1.1013867418    -0.4385187090
   16      C      -1.4786689413     1.1440964287    -0.4518432055
   17      F      -3.5385312176     2.1666005665    -0.8631568414
   18      F      -3.5276310544    -2.1739817427     0.8640778657
   19      H      -0.9631002156    -2.0147974239     0.8096908906
   20      H      -4.6629878404    -0.0070530489    -0.0009366939
   21      H      -0.9732605329     2.0226751422    -0.8030030915
   22      C       2.0371093361     0.0043386747     0.0015581446
   23      C       0.6455315810     0.0091408279     0.0049841737
 ----------------------------------------------------------------
 Molecular Point Group                 C1    NOp =  1
 Largest Abelian Subgroup              C1    NOp =  1
 Nuclear Repulsion Energy =         836.41077279 hartrees
 There are       53 alpha and       51 beta electrons
 Applying Cartesian multipole field
    Component          Value
    ---------          -----
     (2,0,0)        1.00000E-12
     (0,2,0)        2.00000E-11
     (0,0,2)       -3.00000E-11
 Nucleus-field energy     =     0.0000000083 hartrees
 Requested basis set is 6-31++G(d,p)
 There are 107 shells and 333 basis functions
 A cutoff of  1.0D-11 yielded   4486 shell pairs
 There are     44498 function pairs
 Smallest overlap matrix eigenvalue = 3.07E-08

 Q-Chem warning in module stvman/mkSTV.C, line 318:

 Overlap eigenvalue is smaller than square root of threshold
 Use THRESH >= 12 to get rid of this warning

 Linear dependence detected in AO basis
 Tighter screening thresholds may be required for diffuse basis sets
 Use S2THRESH > 14 and THRESH = 14 in case of SCF convergence issues
 Number of orthogonalized atomic orbitals = 331
 Maximum deviation from orthogonality = 1.265E-10
 Guess MOs from SCF MO coefficient file

 -----------------------------------------------------------------------
  General SCF calculation program by
  Eric Jon Sundstrom, Paul Horn, Yuezhi Mao, Dmitri Zuev, Alec White,
  David Stuck, Shaama M.S., Shane Yost, Joonho Lee, David Small,
  Daniel Levine, Susi Lehtola, Hugh Burton, Evgeny Epifanovsky,
  Bang C. Huynh
 -----------------------------------------------------------------------
 Hartree-Fock
 using 8 threads for integral computing
 -------------------------------------------------------
 OpenMP Integral computing Module                
 Release: version 1.0, May 2013, Q-Chem Inc. Pittsburgh 
 -------------------------------------------------------
 A unrestricted SCF calculation will be
 performed using DIIS
 SCF converges when DIIS error is below 1.0e-08
 ---------------------------------------
  Cycle       Energy         DIIS error
 ---------------------------------------
    1    -695.7780092242      5.44e-04  
    2    -695.8035010912      1.42e-04  
    3    -695.8066189346      4.14e-05  
    4    -695.8069634829      1.20e-05  
    5    -695.8069871239      5.51e-06  
    6    -695.8069922473      1.79e-06  
    7    -695.8069929262      8.21e-07  
    8    -695.8069930495      4.24e-07  
    9    -695.8069931054      2.50e-07  
   10    -695.8069931296      1.50e-07  
   11    -695.8069931409      7.39e-08  
   12    -695.8069931434      3.49e-08  
   13    -695.8069931438      1.50e-08  
   14    -695.8069931437      6.48e-09  Convergence criterion met
 ---------------------------------------
 SCF time:   CPU 125.15s  wall 17.00s 
<S^2> =          3.278573782
 SCF   energy in the final basis set =     -695.8069931437
 Total energy in the final basis set =     -695.8069931437

 --------------------------------------------------------------

                    Orbital Energies (a.u.)
 --------------------------------------------------------------

 Alpha MOs
 -- Occupied --
-26.3311 -26.3311 -11.3319 -11.3319 -11.2771 -11.2668 -11.2662 -11.2635
-11.2634 -11.2622 -11.2532 -11.2531 -11.2493 -11.2362 -11.2361  -1.6411
 -1.6405  -1.1890  -1.1650  -1.0950  -1.0460  -1.0435  -1.0298  -0.9657
 -0.8710  -0.8687  -0.8349  -0.8051  -0.7505  -0.7476  -0.7146  -0.7048
 -0.6970  -0.6932  -0.6882  -0.6768  -0.6482  -0.6391  -0.6092  -0.5983
 -0.5974  -0.5605  -0.5593  -0.5412  -0.5287  -0.5218  -0.5060  -0.4404
 -0.4252  -0.3941  -0.3830  -0.3401  -0.3237
 -- Virtual --
  0.0363   0.0471   0.0489   0.0563   0.0591   0.0695   0.0706   0.0885
  0.1061   0.1108   0.1144   0.1178   0.1204   0.1293   0.1393   0.1403
  0.1473   0.1499   0.1522   0.1570   0.1606   0.1640   0.1719   0.1854
  0.1864   0.1898   0.1954   0.1967   0.1973   0.1974   0.2034   0.2043
  0.2070   0.2114   0.2118   0.2188   0.2254   0.2311   0.2316   0.2331
  0.2357   0.2390   0.2462   0.2470   0.2514   0.2573   0.2686   0.2794
  0.2930   0.2970   0.3011   0.3093   0.3115   0.3207   0.3243   0.3299
  0.3409   0.3499   0.3549   0.3565   0.3715   0.3722   0.3870   0.3873
  0.3994   0.4114   0.4235   0.4332   0.4478   0.4547   0.4622   0.4674
  0.4690   0.4706   0.4726   0.4854   0.5019   0.5027   0.5077   0.5207
  0.5237   0.5305   0.5436   0.5521   0.5645   0.5654   0.5851   0.5864
  0.5991   0.6353   0.6754   0.7592   0.7761   0.7786   0.8137   0.8280
  0.8727   0.9069   0.9086   0.9142   0.9283   0.9407   0.9444   0.9539
  0.9605   0.9675   0.9705   0.9889   0.9929   0.9994   1.0022   1.0294
  1.0317   1.0482   1.0515   1.0599   1.0635   1.0669   1.0817   1.0942
  1.0944   1.1067   1.1368   1.1390   1.1654   1.1925   1.1979   1.2311
  1.2413   1.2473   1.2527   1.2713   1.2864   1.2946   1.3210   1.3225
  1.3365   1.3475   1.3642   1.3808   1.3866   1.3988   1.4150   1.4542
  1.4624   1.4752   1.4766   1.4904   1.4951   1.5424   1.5817   1.5863
  1.6023   1.6069   1.6151   1.6226   1.6274   1.6392   1.6519   1.6714
  1.6822   1.6888   1.6936   1.7280   1.8354   1.8725   1.9227   1.9504
  1.9561   1.9610   1.9778   1.9946   2.0387   2.0431   2.0519   2.0659
  2.0747   2.0873   2.0936   2.1035   2.1056   2.1574   2.1585   2.1665
  2.1750   2.2077   2.2088   2.2149   2.2333   2.2428   2.2713   2.2750
  2.2759   2.2904   2.2951   2.3063   2.3347   2.3430   2.3442   2.3732
  2.3993   2.4028   2.4359   2.5514   2.5571   2.5643   2.5657   2.5961
  2.6134   2.6260   2.6530   2.6591   2.6890   2.6976   2.6985   2.7014
  2.7171   2.7250   2.7259   2.7382   2.7505   2.7958   2.7972   2.8282
  2.8451   2.8531   2.8666   2.8977   2.9101   2.9139   2.9245   2.9537
  2.9594   2.9654   2.9729   2.9786   3.0021   3.0731   3.0796   3.1103
  3.1536   3.1676   3.1697   3.1852   3.3739   3.4163   3.4239   3.4512
  3.4962   3.5228   3.5596   3.6211   3.6571   3.6759   3.6859   3.7309
  3.7573   3.8399   3.8424   3.8681   3.9405   4.1698   4.3015   4.6949
  4.7138   4.7142   4.7228   4.7457   4.7649   4.8082   4.9110   4.9205
  4.9268   5.0364   5.2651   5.3842   6.6456   6.7462

 Beta MOs
 -- Occupied --
-26.3330 -26.3330 -11.3462 -11.3462 -11.2947 -11.2800 -11.2510 -11.2498
-11.2497 -11.2466 -11.2466 -11.2364 -11.2363 -11.2344 -11.2262  -1.6471
 -1.6466  -1.1778  -1.1567  -1.0674  -1.0371  -1.0341  -1.0232  -0.9040
 -0.8627  -0.8539  -0.8277  -0.7965  -0.7438  -0.7414  -0.7227  -0.7157
 -0.7003  -0.6919  -0.6907  -0.6685  -0.6445  -0.6259  -0.6061  -0.5963
 -0.5867  -0.5519  -0.5498  -0.5199  -0.5147  -0.5105  -0.5007  -0.3993
 -0.3840  -0.3655  -0.3624
 -- Virtual --
  0.0368   0.0475   0.0488   0.0569   0.0589   0.0687   0.0709   0.0738
  0.0887   0.0892   0.1020   0.1060   0.1139   0.1167   0.1245   0.1358
  0.1419   0.1448   0.1463   0.1506   0.1564   0.1652   0.1681   0.1707
  0.1758   0.1849   0.1941   0.1954   0.1972   0.1976   0.1989   0.2021
  0.2044   0.2105   0.2130   0.2138   0.2227   0.2227   0.2312   0.2321
  0.2377   0.2399   0.2421   0.2470   0.2499   0.2567   0.2581   0.2671
  0.2709   0.2851   0.2964   0.2974   0.3025   0.3100   0.3174   0.3211
  0.3341   0.3416   0.3427   0.3510   0.3568   0.3647   0.3725   0.3775
  0.3888   0.4010   0.4116   0.4204   0.4300   0.4342   0.4554   0.4566
  0.4681   0.4695   0.4703   0.4720   0.4804   0.4918   0.5032   0.5035
  0.5114   0.5240   0.5327   0.5430   0.5434   0.5560   0.5639   0.5700
  0.5919   0.5976   0.6055   0.6437   0.6853   0.7644   0.7826   0.7839
  0.8137   0.8387   0.8794   0.9118   0.9241   0.9288   0.9311   0.9318
  0.9647   0.9757   0.9878   0.9948   0.9969   1.0048   1.0073   1.0158
  1.0189   1.0302   1.0389   1.0410   1.0514   1.0690   1.0698   1.0733
  1.0803   1.1070   1.1101   1.1340   1.1425   1.1725   1.1743   1.1963
  1.2040   1.2333   1.2391   1.2529   1.2597   1.2789   1.2858   1.2949
  1.3228   1.3310   1.3316   1.3503   1.3753   1.3838   1.3845   1.4063
  1.4219   1.4595   1.4793   1.4846   1.4923   1.4929   1.5009   1.5553
  1.5782   1.5955   1.6047   1.6085   1.6104   1.6291   1.6395   1.6498
  1.6605   1.6810   1.6907   1.6917   1.6961   1.7287   1.8437   1.8804
  1.9497   1.9513   1.9778   1.9872   2.0358   2.0443   2.0477   2.0586
  2.0670   2.0685   2.0846   2.0903   2.0906   2.1048   2.1086   2.1577
  2.1706   2.1827   2.1963   2.2139   2.2205   2.2263   2.2342   2.2540
  2.2735   2.2761   2.2796   2.2878   2.2956   2.3187   2.3313   2.3465
  2.3500   2.3697   2.4060   2.4094   2.4246   2.5545   2.5587   2.5695
  2.5715   2.6024   2.6181   2.6295   2.6607   2.6673   2.6940   2.6946
  2.7005   2.7097   2.7164   2.7272   2.7342   2.7393   2.7477   2.7885
  2.8055   2.8311   2.8548   2.8566   2.8758   2.9041   2.9146   2.9205
  2.9265   2.9534   2.9633   2.9735   2.9773   2.9855   3.0076   3.0745
  3.0825   3.1060   3.1512   3.1709   3.1737   3.1839   3.3795   3.4178
  3.4307   3.4528   3.5004   3.5238   3.5703   3.6184   3.6538   3.6761
  3.6862   3.7331   3.7608   3.8431   3.8451   3.8722   3.9414   4.1738
  4.3036   4.6966   4.7155   4.7161   4.7264   4.7498   4.7661   4.8287
  4.9131   4.9187   4.9300   5.0498   5.2670   5.3919   6.6444   6.7445
 --------------------------------------------------------------

          Ground-State Mulliken Net Atomic Charges

     Atom                 Charge (a.u.)    Spin (a.u.)
  --------------------------------------------------------
      1 H                     0.148667       0.060382
      2 C                     0.136193      -0.994133
      3 C                    -0.379307       1.132863
      4 H                     0.131677      -0.066752
      5 C                     0.142409      -0.993054
      6 H                     0.148661       0.060330
      7 C                    -0.589982       1.148181
      8 H                     0.139910      -0.072962
      9 H                     0.140057      -0.072958
     10 C                    -0.587048       1.149612
     11 C                     0.637927      -1.223216
     12 C                    -0.233079       0.990846
     13 C                    -0.135951      -0.728253
     14 C                     0.460505       0.901048
     15 C                    -0.131486      -0.728129
     16 C                    -0.233726       0.991475
     17 F                    -0.406474       0.008038
     18 F                    -0.406438       0.008055
     19 H                     0.178086      -0.074592
     20 H                     0.202449      -0.068888
     21 H                     0.177844      -0.074659
     22 C                     0.668128      -1.270079
     23 C                    -0.209022       1.916846
  --------------------------------------------------------
  Sum of atomic charges =    -0.000000
  Sum of spin   charges =     2.000000

 -----------------------------------------------------------------
                    Cartesian Multipole Moments
 -----------------------------------------------------------------
    Charge (ESU x 10^10)
                -0.0000
    Dipole Moment (Debye)
         X       2.3404      Y      -0.0016      Z      -0.0025
       Tot       2.3404
    Quadrupole Moments (Debye-Ang)
        XX     -81.9458     XY       0.0021     YY     -90.0880
        XZ       0.0017     YZ       5.2198     ZZ     -86.0340
    Octopole Moments (Debye-Ang^2)
       XXX       4.2614    XXY      -0.2042    XYY       5.0892
       YYY       0.0837    XXZ       0.0292    XYZ       5.5240
       YYZ      -0.0441    XZZ      -7.9734    YZZ      -0.0521
       ZZZ      -0.0649
    Hexadecapole Moments (Debye-Ang^3)
      XXXX   -4467.4152   XXXY       0.7060   XXYY   -1047.6715
      XYYY      -0.4511   YYYY    -700.2240   XXXZ       0.6579
      XXYZ     110.8066   XYYZ       0.3457   YYYZ      42.9643
      XXZZ    -878.3122   XYZZ      -0.0956   YYZZ    -161.0378
      XZZZ       0.7636   YZZZ      45.3812   ZZZZ    -333.1516
 -----------------------------------------------------------------
 Calculating analytic gradient of the SCF energy
 Gradient of SCF Energy
            1           2           3           4           5           6
    1  -0.0002365   0.0014523  -0.0002012  -0.0003579   0.0014597  -0.0002409
    2   0.0002438  -0.0002556   0.0000048   0.0000022   0.0002352  -0.0002420
    3   0.0003115  -0.0003595   0.0000068   0.0000030   0.0003424  -0.0003114
            7           8           9          10          11          12
    1  -0.0024673   0.0005072   0.0005071  -0.0024381  -0.0057308   0.0023716
    2   0.0003210  -0.0002039   0.0002059  -0.0003198   0.0001691   0.0000727
    3  -0.0011727  -0.0002239   0.0002192   0.0011638   0.0000545  -0.0010748
           13          14          15          16          17          18
    1  -0.0017007   0.0006146  -0.0017041   0.0023969   0.0005488   0.0005405
    2  -0.0000858   0.0000046   0.0000631  -0.0000767  -0.0008317   0.0008344
    3   0.0000597   0.0000002  -0.0000709   0.0010852   0.0003457  -0.0003407
           19          20          21          22          23
    1  -0.0004086   0.0000818  -0.0004091   0.0058795  -0.0004648
    2   0.0002355   0.0000007  -0.0002312   0.0001587  -0.0003052
    3  -0.0000568  -0.0000035   0.0000693   0.0000703  -0.0001173
 Max gradient component =       5.879E-03
 RMS gradient           =       1.270E-03
 Gradient time:  CPU 41.17 s  wall 5.51 s
 Geometry Optimization Parameters
   NAtoms,    NIC,     NZ,  NCons,   NDum,   NFix, NCnnct, MaxDiis
       23     159       0       0       0       0       0       0

 Cartesian Hessian Update
 Hessian updated using BFGS update


** GEOMETRY OPTIMIZATION IN DELOCALIZED INTERNAL COORDINATES **
   Searching for a Minimum

   Optimization Cycle:   4

                       Coordinates (Angstroms)
     ATOM                X               Y               Z
      1  H         4.6961566315   -1.3382840375   -1.6860847395
      2  C         4.1624809544   -0.7573753480   -0.9558433507
      3  C         4.8718221961   -0.0041078567   -0.0055639306
      4  H         5.9464978569   -0.0073077087   -0.0081917618
      5  C         4.1716799655    0.7534102660    0.9481362012
      6  H         4.7124224787    1.3311723634    1.6756666169
      7  C         2.7789951131    0.7647510071    0.9593258351
      8  H         2.2488445994    1.3447501322    1.6919877520
      9  H         2.2324643064   -1.3369316739   -1.6902923052
     10  C         2.7697144760   -0.7603380376   -0.9601053006
     11  C        -0.7430906630    0.0044497262    0.0031054663
     12  C        -1.4729401695   -1.1393802189    0.4570245951
     13  C        -2.8551083915   -1.1048496931    0.4407520970
     14  C        -3.5904500106   -0.0039018249    0.0002702639
     15  C        -2.8606394950    1.1013867418   -0.4385187090
     16  C        -1.4786689413    1.1440964287   -0.4518432055
     17  F        -3.5385312176    2.1666005665   -0.8631568414
     18  F        -3.5276310544   -2.1739817427    0.8640778657
     19  H        -0.9631002156   -2.0147974239    0.8096908906
     20  H        -4.6629878404   -0.0070530489   -0.0009366939
[...]
      7 C                    -0.534153       1.164342
      8 H                     0.144249      -0.073085
      9 H                     0.144424      -0.073151
     10 C                    -0.524613       1.166301
     11 C                     0.587494      -1.230416
     12 C                    -0.185014       0.995644
     13 C                    -0.146363      -0.729239
     14 C                     0.469833       0.909292
     15 C                    -0.140203      -0.729547
     16 C                    -0.192369       0.997359
     17 F                    -0.406798       0.008172
     18 F                    -0.406760       0.008191
     19 H                     0.181203      -0.075098
     20 H                     0.202472      -0.069753
     21 H                     0.180960      -0.075100
     22 C                     0.634794      -1.281375
     23 C                    -0.318228       1.895064
  --------------------------------------------------------
  Sum of atomic charges =    -0.000000
  Sum of spin   charges =     2.000000

 -----------------------------------------------------------------
                    Cartesian Multipole Moments
 -----------------------------------------------------------------
    Charge (ESU x 10^10)
                -0.0000
    Dipole Moment (Debye)
         X       2.3561      Y      -0.0021      Z      -0.0028
       Tot       2.3561
    Quadrupole Moments (Debye-Ang)
        XX     -82.0057     XY      -0.0066     YY     -91.0232
        XZ       0.0030     YZ       5.0008     ZZ     -85.1546
    Octopole Moments (Debye-Ang^2)
       XXX       4.3121    XXY      -0.2966    XYY      -2.1322
       YYY       0.0734    XXZ       0.0896    XYZ       1.2462
       YYZ      -0.0743    XZZ      -0.6901    YZZ      -0.0528
       ZZZ      -0.0728
    Hexadecapole Moments (Debye-Ang^3)
      XXXX   -4456.7384   XXXY       0.3623   XXYY   -1034.4993
      XYYY      -0.6485   YYYY    -601.2685   XXXZ       0.2801
      XXYZ     124.5115   XYYZ       0.2675   YYYZ      70.3058
      XXZZ    -888.3696   XYZZ      -0.1366   YYZZ    -166.6472
      XZZZ       0.3772   YZZZ      81.2518   ZZZZ    -423.1618
 -----------------------------------------------------------------
 Calculating analytic gradient of the SCF energy
 Gradient of SCF Energy
            1           2           3           4           5           6
    1  -0.0000018   0.0000156   0.0000111  -0.0000093   0.0000158  -0.0000017
    2   0.0000024  -0.0000044   0.0000000  -0.0000001   0.0000037  -0.0000020
    3   0.0000101  -0.0000153  -0.0000000   0.0000002   0.0000161  -0.0000103
            7           8           9          10          11          12
    1   0.0000181   0.0000059   0.0000059   0.0000146  -0.0000519  -0.0000110
    2   0.0000212  -0.0000103   0.0000112  -0.0000207   0.0001388  -0.0000388
    3   0.0000211  -0.0000085   0.0000082  -0.0000192   0.0000699   0.0000084
           13          14          15          16          17          18
    1  -0.0000170  -0.0000104  -0.0000166  -0.0000142   0.0000078   0.0000080
    2  -0.0000100  -0.0000001   0.0000095   0.0000408  -0.0000179   0.0000184
    3   0.0000056   0.0000002  -0.0000076  -0.0000111   0.0000123  -0.0000118
           19          20          21          22          23
    1  -0.0000068   0.0000077  -0.0000066   0.0000378  -0.0000011
    2   0.0000153  -0.0000001  -0.0000142   0.0001411  -0.0002838
    3   0.0000010  -0.0000003   0.0000010   0.0000631  -0.0001331
 Max gradient component =       2.838E-04
 RMS gradient           =       4.828E-05
 Gradient time:  CPU 41.06 s  wall 5.47 s
 Geometry Optimization Parameters
   NAtoms,    NIC,     NZ,  NCons,   NDum,   NFix, NCnnct, MaxDiis
       23     159       0       0       0       0       0       0

 Cartesian Hessian Update
 Hessian updated using BFGS update


** GEOMETRY OPTIMIZATION IN DELOCALIZED INTERNAL COORDINATES **
   Searching for a Minimum

   Optimization Cycle:   7

                       Coordinates (Angstroms)
     ATOM                X               Y               Z
      1  H         4.6904782082   -1.0718244121   -1.8684372798
      2  C         4.1566189760   -0.6067119752   -1.0587610819
      3  C         4.8676885106   -0.0052027985   -0.0060376439
      4  H         5.9427557088   -0.0093937774   -0.0091795211
      5  C         4.1674874458    0.6018314346    1.0508042863
      6  H         4.7096889939    1.0627325511    1.8573366073
      7  C         2.7765535028    0.6131105794    1.0650917147
      8  H         2.2451002445    1.0785086912    1.8754541546
      9  H         2.2257897763   -1.0682017904   -1.8722221387
     10  C         2.7655698062   -0.6071105217   -1.0648969344
     11  C        -0.7355318463    0.0058248196    0.0032636466
     12  C        -1.4689673338   -1.0646694523    0.6138153184
     13  C        -2.8495634964   -1.0337219120    0.5913737861
     14  C        -3.5862707186   -0.0051890828    0.0000165300
     15  C        -2.8561586024    1.0290337738   -0.5896063485
     16  C        -1.4758008820    1.0707116682   -0.6087739299
     17  F        -3.5360652454    2.0233704408   -1.1612578759
     18  F        -3.5230748648   -2.0333694420    1.1613284448
     19  H        -0.9569678349   -1.8823406607    1.0840234583
     20  H        -4.6588578772   -0.0093423012   -0.0012440186
     21  H        -0.9690375105    1.8924330259   -1.0775815251
     22  C         2.0298315843    0.0058134889    0.0023450698
     23  C         0.6460444184    0.0121709148    0.0061852532
   Point Group: c1    Number of degrees of freedom:    63


   Energy is   -695.807743598

 Hessian updated using BFGS update

 62 Hessian modes will be used to form the next step
  Hessian Eigenvalues:
     0.003869    0.016465    0.022760    0.022917    0.022931    0.022949
     0.022979    0.022997    0.023044    0.023065    0.023083    0.023128
     0.023244    0.023459    0.023667    0.023719    0.023841    0.023975
     0.155477    0.160000    0.160000    0.160000    0.160000    0.160000
     0.160033    0.160165    0.169466    0.184198    0.219507    0.220000
     0.227137    0.234929    0.234965    0.241193    0.249997    0.250000
     0.250018    0.250280    0.337387    0.351501    0.351522    0.351658
     0.351691    0.352710    0.352857    0.356306    0.374326    0.412040
     0.419812    0.425333    0.427317    0.442585    0.461601    0.462834
     0.464428    0.465025    0.468772    0.469416    0.475248    0.481278
     0.573406    0.583898

 Minimum search - taking simple RFO step
 Searching for Lamda that Minimizes Along All modes
 Value Taken    Lamda =  -0.00000032
 Step Taken.  Stepsize is  0.001868

                             Maximum     Tolerance    Cnvgd?
         Gradient           0.000166      0.000300     YES
         Displacement       0.001180      0.001200     YES
         Energy change     -0.000001      0.000001      NO

 Final energy is   -695.80774359776649     


 ******************************
 **  OPTIMIZATION CONVERGED  **
 ******************************

                       Coordinates (Angstroms)
     ATOM                X               Y               Z
      1  H         4.6904782082   -1.0718244121   -1.8684372798
      2  C         4.1566189760   -0.6067119752   -1.0587610819
      3  C         4.8676885106   -0.0052027985   -0.0060376439
      4  H         5.9427557088   -0.0093937774   -0.0091795211
      5  C         4.1674874458    0.6018314346    1.0508042863
      6  H         4.7096889939    1.0627325511    1.8573366073
      7  C         2.7765535028    0.6131105794    1.0650917147
      8  H         2.2451002445    1.0785086912    1.8754541546
      9  H         2.2257897763   -1.0682017904   -1.8722221387
     10  C         2.7655698062   -0.6071105217   -1.0648969344
     11  C        -0.7355318463    0.0058248196    0.0032636466
     12  C        -1.4689673338   -1.0646694523    0.6138153184
     13  C        -2.8495634964   -1.0337219120    0.5913737861
     14  C        -3.5862707186   -0.0051890828    0.0000165300
     15  C        -2.8561586024    1.0290337738   -0.5896063485
     16  C        -1.4758008820    1.0707116682   -0.6087739299
     17  F        -3.5360652454    2.0233704408   -1.1612578759
     18  F        -3.5230748648   -2.0333694420    1.1613284448
     19  H        -0.9569678349   -1.8823406607    1.0840234583
     20  H        -4.6588578772   -0.0093423012   -0.0012440186
     21  H        -0.9690375105    1.8924330259   -1.0775815251
     22  C         2.0298315843    0.0058134889    0.0023450698
     23  C         0.6460444184    0.0121709148    0.0061852532

Z-matrix Print:
$molecule
0 3
F 
C  1 1.333327
C  2 1.381125 1 118.763595
H  3 1.073231 2 120.070913 1 -0.019830 0
C  2 1.396539 1 117.821028 3 179.998380 0
H  5 1.072596 2 121.679364 1 0.003435 0
C  5 1.396544 2 116.641203 1 -179.997218 0
F  7 1.333328 5 117.820192 2 179.997243 0
C  7 1.381120 5 123.416275 2 0.000000 0
H  9 1.073227 7 120.072374 5 179.995448 0
C  9 1.434075 7 119.181878 5 0.005578 0
C  11 1.381594 9 120.909573 7 -179.921902 0
C  12 1.383807 11 179.403683 9 -122.231053 0
C  13 1.433818 12 121.116671 11 -147.858839 0
H  14 1.075047 13 118.987306 12 0.051880 0
C  14 1.391053 13 120.643914 12 -179.954661 0
H  16 1.075596 14 119.529708 13 -179.997926 0
C  16 1.405591 14 120.619595 13 0.003958 0
H  18 1.075080 16 120.134335 14 180.000000 0
C  18 1.405582 16 119.731481 14 0.001083 0
H  20 1.075598 18 119.851462 16 -179.997212 0
C  20 1.391063 18 120.617956 16 -0.000000 0
H  22 1.075054 20 120.366277 18 179.988545 0
$end


 --------------------------------------------------------------

                    Orbital Energies (a.u.)
 --------------------------------------------------------------

 Alpha MOs
 -- Occupied --
-26.3308 -26.3308 -11.3319 -11.3319 -11.2769 -11.2668 -11.2666 -11.2638
-11.2637 -11.2620 -11.2534 -11.2533 -11.2495 -11.2362 -11.2361  -1.6403
 -1.6398  -1.1890  -1.1649  -1.0960  -1.0462  -1.0435  -1.0301  -0.9664
 -0.8722  -0.8680  -0.8344  -0.8049  -0.7501  -0.7469  -0.7144  -0.7046
 -0.6965  -0.6931  -0.6877  -0.6774  -0.6481  -0.6392  -0.6090  -0.5982
 -0.5975  -0.5601  -0.5600  -0.5395  -0.5303  -0.5228  -0.5053  -0.4368
 -0.4305  -0.3950  -0.3840  -0.3372  -0.3244
 -- Virtual --
  0.0361   0.0469   0.0492   0.0563   0.0586   0.0693   0.0703   0.0879
  0.1060   0.1111   0.1135   0.1177   0.1200   0.1316   0.1398   0.1451
  0.1470   0.1481   0.1504   0.1562   0.1581   0.1628   0.1744   0.1837
  0.1868   0.1925   0.1934   0.1966   0.1976   0.2003   0.2030   0.2038
  0.2057   0.2058   0.2102   0.2206   0.2232   0.2295   0.2315   0.2319
  0.2359   0.2401   0.2450   0.2489   0.2497   0.2548   0.2680   0.2873
  0.2954   0.2965   0.3072   0.3081   0.3154   0.3168   0.3234   0.3317
  0.3370   0.3418   0.3547   0.3598   0.3652   0.3728   0.3842   0.3902
  0.4039   0.4069   0.4249   0.4335   0.4487   0.4523   0.4647   0.4689
  0.4699   0.4705   0.4705   0.4858   0.5025   0.5034   0.5068   0.5211
  0.5253   0.5322   0.5431   0.5523   0.5644   0.5663   0.5854   0.5891
  0.5985   0.6390   0.6725   0.7583   0.7713   0.7771   0.8147   0.8280
  0.8723   0.9084   0.9097   0.9112   0.9288   0.9393   0.9518   0.9573
  0.9604   0.9704   0.9781   0.9866   0.9898   0.9906   1.0020   1.0256
  1.0331   1.0529   1.0537   1.0584   1.0703   1.0748   1.0848   1.0857
  1.1132   1.1147   1.1195   1.1393   1.1671   1.1930   1.1946   1.2309
  1.2387   1.2458   1.2563   1.2696   1.2858   1.2956   1.3219   1.3246
  1.3349   1.3512   1.3652   1.3839   1.3877   1.3943   1.4189   1.4522
  1.4624   1.4706   1.4769   1.4912   1.4924   1.5456   1.5846   1.5861
  1.6052   1.6074   1.6129   1.6230   1.6270   1.6377   1.6517   1.6716
  1.6825   1.6896   1.6938   1.7322   1.8534   1.8595   1.9137   1.9526
  1.9564   1.9608   1.9781   1.9985   2.0375   2.0436   2.0525   2.0658
  2.0696   2.0881   2.0936   2.1034   2.1054   2.1557   2.1589   2.1667
  2.1743   2.2088   2.2094   2.2147   2.2326   2.2429   2.2731   2.2740
  2.2750   2.2897   2.2937   2.3079   2.3308   2.3370   2.3522   2.3727
  2.4025   2.4029   2.4351   2.5506   2.5580   2.5592   2.5726   2.5957
  2.6130   2.6290   2.6507   2.6593   2.6933   2.6944   2.6973   2.7022
  2.7163   2.7223   2.7245   2.7374   2.7501   2.7959   2.7994   2.8343
  2.8440   2.8522   2.8660   2.8917   2.9109   2.9123   2.9239   2.9525
  2.9581   2.9667   2.9725   2.9814   2.9963   3.0733   3.0759   3.1125
  3.1548   3.1675   3.1693   3.1874   3.3982   3.4074   3.4159   3.4499
  3.4976   3.5225   3.5666   3.6204   3.6554   3.6746   3.6838   3.7424
  3.7433   3.8385   3.8425   3.8668   3.9399   4.1681   4.3003   4.6940
  4.7127   4.7140   4.7228   4.7576   4.7684   4.8126   4.9099   4.9241
  4.9246   5.0370   5.2683   5.3831   6.6469   6.7394

 Beta MOs
 -- Occupied --
-26.3327 -26.3327 -11.3462 -11.3462 -11.2945 -11.2798 -11.2513 -11.2498
-11.2498 -11.2468 -11.2468 -11.2365 -11.2365 -11.2344 -11.2269  -1.6463
 -1.6458  -1.1774  -1.1564  -1.0681  -1.0370  -1.0343  -1.0234  -0.9050
 -0.8619  -0.8549  -0.8270  -0.7964  -0.7431  -0.7416  -0.7221  -0.7152
 -0.6999  -0.6918  -0.6909  -0.6689  -0.6445  -0.6259  -0.6059  -0.5963
 -0.5865  -0.5511  -0.5506  -0.5185  -0.5157  -0.5107  -0.4997  -0.3950
 -0.3892  -0.3659  -0.3630
 -- Virtual --
  0.0366   0.0473   0.0491   0.0569   0.0585   0.0685   0.0706   0.0737
  0.0871   0.0883   0.1012   0.1059   0.1143   0.1161   0.1240   0.1364
  0.1414   0.1463   0.1478   0.1503   0.1560   0.1656   0.1660   0.1709
  0.1739   0.1840   0.1959   0.1963   0.1972   0.1983   0.1995   0.2014
  0.2036   0.2060   0.2115   0.2126   0.2223   0.2271   0.2297   0.2311
  0.2375   0.2401   0.2461   0.2467   0.2489   0.2541   0.2551   0.2665
  0.2696   0.2926   0.2962   0.2995   0.3089   0.3100   0.3194   0.3221
  0.3237   0.3405   0.3436   0.3441   0.3572   0.3702   0.3702   0.3722
  0.3919   0.4010   0.4127   0.4173   0.4302   0.4353   0.4540   0.4559
  0.4691   0.4692   0.4707   0.4716   0.4814   0.4926   0.5036   0.5040
  0.5101   0.5264   0.5335   0.5423   0.5443   0.5558   0.5646   0.5712
  0.5948   0.5969   0.6077   0.6468   0.6805   0.7613   0.7798   0.7837
  0.8146   0.8390   0.8790   0.9131   0.9254   0.9278   0.9311   0.9331
  0.9654   0.9745   0.9929   0.9946   0.9957   1.0039   1.0072   1.0165
  1.0182   1.0355   1.0401   1.0558   1.0585   1.0641   1.0732   1.0740
  1.0757   1.0915   1.1252   1.1464   1.1468   1.1545   1.1766   1.1971
  1.1999   1.2319   1.2385   1.2512   1.2634   1.2765   1.2849   1.2959
  1.3264   1.3305   1.3311   1.3547   1.3750   1.3856   1.3881   1.4001
  1.4252   1.4580   1.4792   1.4859   1.4873   1.4941   1.4982   1.5580
  1.5782   1.5994   1.6065   1.6090   1.6100   1.6291   1.6398   1.6487
  1.6603   1.6816   1.6912   1.6925   1.6960   1.7322   1.8622   1.8681
  1.9500   1.9511   1.9781   1.9890   2.0374   2.0441   2.0476   2.0503
  2.0666   2.0678   2.0814   2.0903   2.0909   2.1046   2.1080   2.1578
  2.1702   2.1805   2.1951   2.2147   2.2208   2.2262   2.2339   2.2543
  2.2741   2.2772   2.2780   2.2874   2.2951   2.3196   2.3282   2.3439
  2.3561   2.3668   2.4058   2.4148   2.4240   2.5537   2.5614   2.5616
  2.5770   2.6024   2.6181   2.6326   2.6590   2.6670   2.6926   2.6985
  2.6986   2.7104   2.7156   2.7258   2.7315   2.7384   2.7470   2.7885
  2.8093   2.8367   2.8536   2.8561   2.8775   2.8963   2.9132   2.9214
  2.9258   2.9516   2.9619   2.9748   2.9770   2.9875   3.0034   3.0747
  3.0790   3.1090   3.1521   3.1702   3.1736   3.1857   3.4054   3.4131
  3.4174   3.4514   3.5008   3.5235   3.5780   3.6181   3.6522   3.6748
  3.6841   3.7453   3.7462   3.8418   3.8451   3.8710   3.9409   4.1722
  4.3024   4.6958   4.7144   4.7166   4.7267   4.7601   4.7702   4.8325
  4.9120   4.9225   4.9269   5.0510   5.2703   5.3912   6.6458   6.7378
 --------------------------------------------------------------

          Ground-State Mulliken Net Atomic Charges

     Atom                 Charge (a.u.)    Spin (a.u.)
  --------------------------------------------------------
      1 H                     0.148759       0.060181
      2 C                     0.121510      -1.006426
      3 C                    -0.371556       1.150936
      4 H                     0.132018      -0.067309
      5 C                     0.129589      -1.005094
      6 H                     0.148752       0.060111
      7 C                    -0.534153       1.164342
      8 H                     0.144249      -0.073085
      9 H                     0.144424      -0.073151
     10 C                    -0.524613       1.166301
     11 C                     0.587494      -1.230416
     12 C                    -0.185014       0.995644
     13 C                    -0.146363      -0.729239
     14 C                     0.469833       0.909292
     15 C                    -0.140203      -0.729547
     16 C                    -0.192369       0.997359
     17 F                    -0.406798       0.008172
     18 F                    -0.406760       0.008191
     19 H                     0.181203      -0.075098
     20 H                     0.202472      -0.069753
     21 H                     0.180960      -0.075100
     22 C                     0.634794      -1.281375
     23 C                    -0.318228       1.895064
  --------------------------------------------------------
  Sum of atomic charges =    -0.000000
  Sum of spin   charges =     2.000000

 -----------------------------------------------------------------
                    Cartesian Multipole Moments
 -----------------------------------------------------------------
    Charge (ESU x 10^10)
                -0.0000
    Dipole Moment (Debye)
         X       2.3561      Y      -0.0021      Z      -0.0028
       Tot       2.3561
    Quadrupole Moments (Debye-Ang)
        XX     -82.0057     XY      -0.0066     YY     -91.0232
        XZ       0.0030     YZ       5.0008     ZZ     -85.1546
    Octopole Moments (Debye-Ang^2)
       XXX       4.3121    XXY      -0.2966    XYY      -2.1322
       YYY       0.0734    XXZ       0.0896    XYZ       1.2462
       YYZ      -0.0743    XZZ      -0.6901    YZZ      -0.0528
       ZZZ      -0.0728
    Hexadecapole Moments (Debye-Ang^3)
      XXXX   -4456.7384   XXXY       0.3623   XXYY   -1034.4993
      XYYY      -0.6485   YYYY    -601.2685   XXXZ       0.2801
      XXYZ     124.5115   XYYZ       0.2675   YYYZ      70.3058
      XXZZ    -888.3696   XYZZ      -0.1366   YYZZ    -166.6472
      XZZZ       0.3772   YZZZ      81.2518   ZZZZ    -423.1618
 -----------------------------------------------------------------
Archival summary:
1\1\node4.as.kent.edu\OPT\HF\BasisUnspecified\2138(3)\eholder\MonSep1221:10:092022MonSep1221:10:092022\0\\#,OPT,HF,BasisUnspecified,\\0,3\F\C,1,1.33333\C,2,1.38113,1,118.764\H,3,1.07323,2,120.071,1,-0.0198295,0\C,2,1.39654,1,117.821,3,179.998,0\H,5,1.0726,2,121.679,1,0.00343492,0\C,5,1.39654,2,116.641,1,-179.997,0\F,7,1.33333,5,117.82,2,179.997,0\C,7,1.38112,5,123.416,2,0,0\H,9,1.07323,7,120.072,5,179.995,0\C,9,1.43408,7,119.182,5,0.00557768,0\C,11,1.38159,9,120.91,7,-179.922,0\C,12,1.38381,11,179.404,9,-122.231,0\C,13,1.43382,12,121.117,11,-147.859,0\H,14,1.07505,13,118.987,12,0.0518802,0\C,14,1.39105,13,120.644,12,-179.955,0\H,16,1.0756,14,119.53,13,-179.998,0\C,16,1.40559,14,120.62,13,0.00395849,0\H,18,1.07508,16,120.134,14,180,0\C,18,1.40558,16,119.731,14,0.00108258,0\H,20,1.0756,18,119.851,16,-179.997,0\C,20,1.39106,18,120.618,16,-0,0\H,22,1.07505,20,120.366,18,179.989,0\\HF=-695.807744\\@

 Total job time:  180.36s(wall), 1205.92s(cpu) 
 Mon Sep 12 21:10:09 2022

        *************************************************************
        *                                                           *
        *  Thank you very much for using Q-Chem.  Have a nice day.  *
        *                                                           *
        *************************************************************


