                  Welcome to Q-Chem
     A Quantum Leap Into The Future Of Chemistry


 Q-Chem 5.3 (devel), Q-Chem, Inc., Pleasanton, CA (2020)

 Yihan Shao,  Zhengting Gan,  E. Epifanovsky,  A. T. B. Gilbert,  M. Wormit,  
 J. Kussmann,  A. W. Lange,  A. Behn,  Jia Deng,  Xintian Feng,  D. Ghosh,  
 M. Goldey,  P. R. Horn,  L. D. Jacobson,  I. Kaliman,  T. Kus,  A. Landau,  
 Jie Liu,  E. I. Proynov,  R. M. Richard,  R. P. Steele,  E. J. Sundstrom,  
 H. L. Woodcock III,  P. M. Zimmerman,  D. Zuev,  B. Alam,  B. Albrecht,  
 A. Aldossary,  E. Alguire,  S. A. Baeppler,  D. Barton,  Z. Benda,  
 Y. A. Bernard,  E. J. Berquist,  K. B. Bravaya,  H. Burton,  K. Carter-Fenk,  
 D. Casanova,  Chun-Min Chang,  Yunqing Chen,  A. Chien,  K. D. Closser,  
 M. P. Coons,  S. Coriani,  S. Dasgupta,  A. L. Dempwolff,  M. Diedenhofen,  
 Hainam Do,  R. G. Edgar,  Po-Tung Fang,  S. Faraji,  S. Fatehi,  
 Qingguo Feng,  J. Fosso-Tande,  J. Gayvert,  Qinghui Ge,  A. Ghysels,  
 G. Gidofalvi,  J. Gomes,  J. Gonthier,  S. Gulania,  A. Gunina,  D. Hait,  
 M. W. D. Hanson-Heine,  S. Hammes-Schiffer,  P. H. P. Harbach,  
 A. W. Hauser,  M. F. Herbst,  J. E. Herr,  E. G. Hohenstein,  Z. C. Holden,  
 S. Houck,  Kerwin Hui,  B. C. Huynh,  M. Ivanov,  T.-C. Jagau,  Hyunjun Ji,  
 B. Kaduk,  K. Khistyaev,  Jaehoon Kim,  P. Klunzinger,  K. Koh,  
 D. Kosenkov,  L. Koulias,  T. Kowalczyk,  C. M. Krauter,  A. Kunitsa,  
 Ka Un Lao,  A. Laurent,  K. V. Lawler,  Joonho Lee,  D. Lefrancois,  
 S. Lehtola,  D. S. Levine,  Yi-Pei Li,  You-Sheng Lin,  Fenglai Liu,  
 Kuan-Yu Liu,  E. Livshits,  M. Loipersberger,  A. Luenser,  P. Manohar,  
 E. Mansoor,  S. F. Manzer,  Shan-Ping Mao,  Yuezhi Mao,  N. Mardirossian,  
 A. V. Marenich,  T. Markovich,  L. A. Martinez-Martinez,  S. A. Maurer,  
 N. J. Mayhall,  S. C. McKenzie,  J.-M. Mewes,  P. Morgante,  A. F. Morrison,  
 J. W. Mullinax,  K. Nanda,  T. S. Nguyen-Beck,  R. Olivares-Amaya,  
 K. J. Oosterbaan,  J. A. Parkhill,  S. K. Paul,  F. Pavosevic,  Zheng Pei,  
 T. M. Perrine,  F. Plasser,  P. Pokhilko,  S. Prager,  A. Prociuk,  
 E. Ramos,  B. Rana,  D. R. Rehn,  F. Rob,  E. Rossomme,  M. Scheurer,  
 M. Schneider,  N. Sergueev,  S. M. Sharada,  S. Sharma,  W. Skomorowski,  
 D. W. Small,  T. Stauch,  C. J. Stein,  T. Stein,  Yu-Chuan Su,  
 S. P. Veccham,  Zhen Tao,  A. J. W. Thom,  A. Tkatchenko,  T. Tsuchimochi,  
 N. M. Tubman,  L. Vogt,  M. L. Vidal,  O. Vydrov,  M. A. Watson,  J. Wenzel,  
 M. de Wergifosse,  T. A. Wesolowski,  A. White,  J. Witte,  A. Yamada,  
 Jun Yang,  K. Yao,  S. Yeganeh,  S. R. Yost,  Zhi-Qiang You,  A. Zech,  
 Igor Ying Zhang,  Xing Zhang,  Yan Zhao,  Ying Zhu,  B. R. Brooks,  
 G. K. L. Chan,  C. J. Cramer,  M. S. Gordon,  W. J. Hehre,  A. Klamt,  
 M. W. Schmidt,  C. D. Sherrill,  D. G. Truhlar,  A. Aspuru-Guzik,  R. Baer,  
 A. T. Bell,  N. A. Besley,  Jeng-Da Chai,  A. E. DePrince, III,  
 R. A. DiStasio Jr.,  A. Dreuw,  B. D. Dunietz,  T. R. Furlani,  
 Chao-Ping Hsu,  Yousung Jung,  Jing Kong,  D. S. Lambrecht,  WanZhen Liang,  
 C. Ochsenfeld,  V. A. Rassolov,  L. V. Slipchenko,  J. E. Subotnik,  
 T. Van Voorhis,  J. M. Herbert,  A. I. Krylov,  P. M. W. Gill,  M. Head-Gordon

 Contributors to earlier versions of Q-Chem not listed above: 
 R. D. Adamson,  B. Austin,  J. Baker,  G. J. O. Beran,  K. Brandhorst,  
 S. T. Brown,  E. F. C. Byrd,  A. K. Chakraborty,  C.-L. Cheng,  
 Siu Hung Chien,  D. M. Chipman,  D. L. Crittenden,  H. Dachsel,  
 R. J. Doerksen,  A. D. Dutoi,  L. Fusti-Molnar,  W. A. Goddard III,  
 A. Golubeva-Zadorozhnaya,  S. R. Gwaltney,  G. Hawkins,  A. Heyden,  
 S. Hirata,  G. Kedziora,  F. J. Keil,  C. Kelley,  Jihan Kim,  R. A. King,  
 R. Z. Khaliullin,  P. P. Korambath,  W. Kurlancheek,  A. M. Lee,  M. S. Lee,  
 S. V. Levchenko,  Ching Yeh Lin,  D. Liotard,  R. C. Lochan,  I. Lotan,  
 P. E. Maslen,  N. Nair,  D. P. O'Neill,  D. Neuhauser,  E. Neuscamman,  
 C. M. Oana,  R. Olson,  B. Peters,  R. Peverati,  P. A. Pieniazek,  
 Y. M. Rhee,  J. Ritchie,  M. A. Rohrdanz,  E. Rosta,  N. J. Russ,  
 H. F. Schaefer III,  N. E. Schultz,  N. Shenvi,  A. C. Simmonett,  A. Sodt,  
 D. Stuck,  K. S. Thanthiriwatte,  V. Vanovschi,  Tao Wang,  A. Warshel,  
 C. F. Williams,  Q. Wu,  X. Xu,  W. Zhang

 Please cite Q-Chem as follows:
 Y. Shao et al., Mol. Phys. 113, 184-215 (2015)
 DOI: 10.1080/00268976.2014.952696

 Q-Chem 5.3.0 for Intel X86 EM64T Linux

 Parts of Q-Chem use Armadillo 9.800.1 (Horizon Scraper).
 http://arma.sourceforge.net/

 Q-Chem begins on Tue Oct 18 14:35:33 2022  

Host: node5.as.kent.edu
0

     Scratch files written to /home/eholder/active_projects/fe@c60/gas/geo/opt//
Processing $rem in /data/dunietz/qchem/qchem-5.3.0/config/preferences:
Processing $rem in /home/eholder/.qchemrc:
The previous job contains 0 fragments, simply inherited here

Checking the input file for inconsistencies... 	...done.

--------------------------------------------------------------
User input:
--------------------------------------------------------------
$molecule
read opt.txt
$end

$rem
jobtype  opt
exchange  wB97XD
correlation  none
basis  6-31++G(d,p)
iqmol_fchk  true
scf_convergence  8
max_scf_cycles  1000
mem_static  8000
mem_total  48000
symmetry    false
$end

--------------------------------------------------------------
 ----------------------------------------------------------------
             Standard Nuclear Orientation (Angstroms)
    I     Atom           X                Y                Z
 ----------------------------------------------------------------
    1      Fe     -1.8109614201    -0.4210610157     0.0732852492
    2      C      -0.1079148256    -0.2342817490    -3.3836458906
    3      C       0.8541077492    -1.2054530301    -3.1308868916
    4      C       0.2030813786    -2.2887218455    -2.5475057614
    5      C      -1.1627671423    -1.9880906462    -2.4501317590
    6      C      -1.3377253552    -0.7095135797    -2.9565473599
    7      C      -2.3059071297     0.1648547407    -2.4339187839
    8      C      -3.2047062984    -0.2655714216    -1.3292733241
    9      C      -3.2009845613    -1.7492108064    -0.9125033782
   10      C      -1.9823909986    -2.4790547643    -1.4058346150
   11      C      -1.2853869815    -3.0907768381    -0.3492026136
   12      C       0.1087540659    -3.3672249419    -0.4347956889
   13      C       0.8488972182    -3.0651142485    -1.5715391660
   14      C       2.2473284691    -2.7976994450    -1.1836767737
   15      C       2.8413715343    -1.5607328988    -1.7545286092
   16      C       2.1538795898    -0.8246123223    -2.7236535183
   17      C       2.4423098529     0.5304047764    -2.5656563010
   18      C       3.2526453728     0.6570272097    -1.4478923763
   19      C       3.4535619918    -0.6209058661    -0.9226567707
   20      C       3.5053345241    -0.8105660773     0.4822019731
   21      C       2.9388611964    -1.9429987946     1.0973543101
   22      C       2.2272254321    -2.8700565500     0.2893890747
   23      C       0.9306183492    -3.2485606582     0.6860229086
   24      C       0.3557075423    -2.8001118762     1.8873623021
   25      C      -1.0108164145    -2.5146635713     1.9482475772
   26      C      -1.8849503523    -2.7522366909     0.8625213561
   27      C      -3.0483695408    -1.8510917780     0.5852545012
   28      C      -3.1804114632    -0.5876705488     1.4872339992
   29      C      -3.4734127391     0.8044051507     0.9869510057
   30      C      -3.5306198595     0.9729109071    -0.5118347869
   31      C      -2.7550932032     2.0923441447    -1.1405985318
   32      C      -1.9932011195     3.0675741138    -0.3000333610
   33      C      -1.8300990428     2.7482238915     1.1226217988
   34      C      -2.4979450974     1.6535076101     1.7194362009
   35      C      -1.8019749873     0.8890475922     2.6699644487
   36      C      -2.1749648081    -0.4501673119     2.5845995748
   37      C      -1.1563252994    -1.4151200330     2.7871690577
   38      C       0.1210073239    -1.0658340831     3.2329195328
   39      C       1.0585155854    -1.9692316642     2.7464606712
   40      C       2.4483037116    -1.5468456456     2.4327887535
   41      C       2.6882669796    -0.0949819772     2.4962179280
   42      C       3.3588231204     0.3003063473     1.3319486193
   43      C       3.1531469093     1.5900437024     0.7782336856
   44      C       3.1060299699     1.7701936099    -0.5978896619
   45      C       2.1465848513     2.7495972533    -0.8776670803
   46      C       1.5985600264     3.1702994347     0.3255576649
   47      C       2.2284371519     2.4606531749     1.3498235832
   48      C       1.4865414862     2.0429167769     2.4630903950
   49      C       1.6982455003     0.7781851378     3.0129938312
   50      C       0.4476192119     0.2889058018     3.3961155583
   51      C      -0.5080031936     1.2509511829     3.0929199278
   52      C       0.1277645799     2.3325244519     2.5260701019
   53      C      -0.5175479731     3.0584498757     1.5083584476
   54      C       0.2155089167     3.4844240962     0.4035459997
   55      C      -0.6172773798     3.4381098962    -0.7228536769
   56      C      -0.0497921205     2.9280858300    -1.9120215329
   57      C       1.3141015071     2.6165709867    -2.0040922024
   58      C       1.4627561978     1.5124214422    -2.8365908213
   59      C       0.1960850403     1.1263408087    -3.2411439836
   60      C      -0.7373650236     1.9882584645    -2.6715392798
   61      C      -2.0165299388     1.5241609874    -2.2908297020
 ----------------------------------------------------------------
 Molecular Point Group                 C1    NOp =  1
 Largest Abelian Subgroup              C1    NOp =  1
 Nuclear Repulsion Energy =        9777.78015063 hartrees
 There are      193 alpha and      193 beta electrons
 Requested basis set is 6-31++G(d,p)
 There are 308 shells and 1176 basis functions

 Total QAlloc Memory Limit  48000 MB
 Mega-Array Size      7821 MB
 MEM_STATIC part      8000 MB
 A cutoff of  1.0D-11 yielded  34930 shell pairs
 There are    545090 function pairs (    547823 Cartesian)
 Smallest overlap matrix eigenvalue = 1.41E-09

 Q-Chem warning in module stvman/mkSTV.C, line 318:

 Overlap eigenvalue is smaller than square root of threshold
 Use THRESH >= 12 to get rid of this warning

 Linear dependence detected in AO basis
 Tighter screening thresholds may be required for diffuse basis sets
 Use S2THRESH > 14 and THRESH = 14 in case of SCF convergence issues
 Number of orthogonalized atomic orbitals = 1118
 Maximum deviation from orthogonality = 3.784E-10

 Scale SEOQF with 1.000000e-01/1.000000e-01/1.000000e-01

 Standard Electronic Orientation quadrupole field applied
 Nucleus-field energy     =     0.0000000122 hartrees
 Guess from superposition of atomic densities
 Warning:  Energy on first SCF cycle will be non-variational
 SAD guess density has 386.003893 electrons

 -----------------------------------------------------------------------
  General SCF calculation program by
  Eric Jon Sundstrom, Paul Horn, Yuezhi Mao, Dmitri Zuev, Alec White,
  David Stuck, Shaama M.S., Shane Yost, Joonho Lee, David Small,
  Daniel Levine, Susi Lehtola, Hugh Burton, Evgeny Epifanovsky,
  Bang C. Huynh
 -----------------------------------------------------------------------
 Exchange:     0.2220 Hartree-Fock + 1.0000 wB97X-D + LR-HF
 Correlation:  1.0000 wB97X-D
 Using SG-2 standard quadrature grid
 Dispersion:   Grimme D
 using 8 threads for integral computing
 -------------------------------------------------------
 OpenMP Integral computing Module                
 Release: version 1.0, May 2013, Q-Chem Inc. Pittsburgh 
 -------------------------------------------------------
 using 8 threads for integral computing
 -------------------------------------------------------
 OpenMP Integral computing Module                
 Release: version 1.0, May 2013, Q-Chem Inc. Pittsburgh 
 -------------------------------------------------------
 A restricted SCF calculation will be
 performed using DIIS
 SCF converges when DIIS error is below 1.0e-08
 ---------------------------------------
  Cycle       Energy         DIIS error
 ---------------------------------------
    1   -3578.4252678140      3.12e-02  
    2   -3548.0066666281      2.55e-03  
    3   -3533.2729855239      8.62e-03  
    4   -3546.5538587473      4.77e-03  
    5   -3546.2131552206      5.06e-03  
    6   -3546.8780027722      4.44e-03  
    7   -3546.7767622858      4.57e-03  
    8   -3546.7471977506      4.60e-03  
    9   -3547.3044284475      4.07e-03  
   10   -3547.1947705986      4.23e-03  
   11   -3547.3977952288      3.96e-03  
   12   -3547.7727159055      3.34e-03  
   13   -3548.0815090475      2.70e-03  
   14   -3548.5897888515      1.24e-03  
   15   -3548.6935627997      5.22e-04  
   16   -3548.7165626004      2.39e-04  
   17   -3548.7211246840      1.20e-04  
   18   -3548.7224667658      6.82e-05  
   19   -3548.7232765377      1.08e-05  
   20   -3548.7234137954      7.48e-06  
   21   -3548.7235174189      5.99e-06  
   22   -3548.7236146658      4.95e-06  
   23   -3548.7236598656      3.06e-06  
   24   -3548.7236946606      3.07e-06  
   25   -3548.7237189876      1.72e-06  
   26   -3548.7237322216      1.30e-06  
   27   -3548.7237383661      9.91e-07  
   28   -3548.7237410839      9.07e-07  
   29   -3548.7237428519      7.33e-07  
   30   -3548.7237443808      4.01e-07  
   31   -3548.7237450177      3.01e-07  
   32   -3548.7237452638      2.60e-07  
   33   -3548.7237454851      2.32e-07  
   34   -3548.7237455980      1.81e-07  
   35   -3548.7237456934      1.59e-07  
   36   -3548.7237458267      1.28e-07  
   37   -3548.7237459190      1.17e-07  
   38   -3548.7237460055      1.08e-07  
   39   -3548.7237460848      8.32e-08  
   40   -3548.7237461451      6.94e-08  
   41   -3548.7237461814      3.83e-08  
   42   -3548.7237461916      4.14e-08  
   43   -3548.7237461951      2.61e-08  
   44   -3548.7237461979      2.21e-08  
   45   -3548.7237461995      2.00e-08  
   46   -3548.7237462016      1.70e-08  
   47   -3548.7237462042      1.45e-08  
   48   -3548.7237462060      1.03e-08  
   49   -3548.7237462069      7.92e-09  Convergence criterion met
 ---------------------------------------
 SCF time:   CPU 139221.47s  wall 21968.00s 
 SCF   energy in the final basis set =    -3548.7237462069
 Total energy in the final basis set =    -3548.7237462069

 --------------------------------------------------------------

                    Orbital Energies (a.u.)
 --------------------------------------------------------------

 Alpha MOs
 -- Occupied --
******** -30.1918 -26.0504 -26.0373 -26.0248 -10.4072 -10.4023 -10.3983
-10.3974 -10.3961 -10.3909 -10.3815 -10.3791 -10.3781 -10.3719 -10.3716
-10.3703 -10.3664 -10.3632 -10.3620 -10.3614 -10.3613 -10.3606 -10.3600
-10.3595 -10.3592 -10.3584 -10.3571 -10.3569 -10.3568 -10.3555 -10.3540
-10.3526 -10.3518 -10.3511 -10.3507 -10.3496 -10.3494 -10.3489 -10.3487
-10.3487 -10.3483 -10.3475 -10.3472 -10.3470 -10.3468 -10.3467 -10.3466
-10.3465 -10.3463 -10.3462 -10.3461 -10.3455 -10.3453 -10.3452 -10.3451
-10.3451 -10.3450 -10.3448 -10.3440 -10.3434 -10.3432 -10.3408 -10.3406
-10.3396  -3.5532  -2.3409  -2.3205  -2.2972  -1.1073  -1.0920  -1.0890
 -1.0761  -1.0547  -1.0529  -1.0488  -1.0390  -1.0360  -1.0195  -1.0117
 -1.0032  -0.9639  -0.9606  -0.9582  -0.9554  -0.9188  -0.9186  -0.9157
 -0.9139  -0.9127  -0.8910  -0.8884  -0.8876  -0.8862  -0.8371  -0.8334
 -0.8316  -0.8312  -0.8298  -0.8272  -0.8255  -0.8240  -0.7760  -0.7733
 -0.7702  -0.7458  -0.7456  -0.7382  -0.7308  -0.7291  -0.7280  -0.7275
 -0.7232  -0.7127  -0.6737  -0.6732  -0.6690  -0.6644  -0.6429  -0.6393
 -0.6385  -0.6369  -0.6360  -0.6267  -0.6257  -0.6206  -0.6056  -0.5887
 -0.5879  -0.5841  -0.5823  -0.5817  -0.5789  -0.5761  -0.5738  -0.5712
 -0.5700  -0.5479  -0.5478  -0.5453  -0.5430  -0.5421  -0.5380  -0.5344
 -0.5331  -0.5321  -0.5290  -0.5284  -0.5262  -0.5238  -0.5222  -0.5202
 -0.5189  -0.5177  -0.4969  -0.4951  -0.4937  -0.4910  -0.4814  -0.4763
 -0.4697  -0.4644  -0.4618  -0.4597  -0.4582  -0.4561  -0.4507  -0.4485
 -0.4467  -0.4461  -0.4449  -0.4434  -0.4422  -0.4399  -0.4324  -0.3975
 -0.3916  -0.3843  -0.3785  -0.3710  -0.3573  -0.3554  -0.3536  -0.3527
 -0.3347  -0.3177  -0.3108  -0.3090  -0.2999  -0.2968  -0.2829  -0.2736
 -0.2614
 -- Virtual --
 -0.0989  -0.0852  -0.0752  -0.0534  -0.0495  -0.0326  -0.0276  -0.0190
  0.0029   0.0115   0.0150   0.0202   0.0293   0.0309   0.0325   0.0359
  0.0508   0.0602   0.0614   0.0646   0.0743   0.0757   0.0827   0.0873
  0.0878   0.0883   0.0898   0.0921   0.0924   0.0992   0.1005   0.1047
  0.1062   0.1066   0.1068   0.1071   0.1080   0.1085   0.1101   0.1138
  0.1163   0.1239   0.1259   0.1260   0.1265   0.1274   0.1279   0.1283
  0.1296   0.1307   0.1389   0.1438   0.1475   0.1490   0.1497   0.1515
  0.1524   0.1535   0.1538   0.1539   0.1547   0.1547   0.1549   0.1572
  0.1578   0.1597   0.1612   0.1661   0.1713   0.1785   0.1818   0.1829
  0.1834   0.1843   0.1852   0.1856   0.1859   0.1864   0.1867   0.1876
  0.1887   0.1896   0.1900   0.1920   0.1955   0.2002   0.2025   0.2069
  0.2159   0.2176   0.2217   0.2223   0.2238   0.2270   0.2273   0.2285
  0.2290   0.2304   0.2321   0.2322   0.2340   0.2356   0.2375   0.2411
  0.2455   0.2466   0.2485   0.2498   0.2535   0.2537   0.2558   0.2560
  0.2572   0.2586   0.2612   0.2634   0.2664   0.2679   0.2692   0.2707
  0.2713   0.2731   0.2750   0.2779   0.2796   0.2836   0.2878   0.2894
  0.2908   0.2968   0.2971   0.2990   0.3062   0.3064   0.3079   0.3087
  0.3100   0.3109   0.3120   0.3123   0.3130   0.3136   0.3139   0.3154
  0.3163   0.3170   0.3179   0.3197   0.3212   0.3218   0.3226   0.3231
  0.3235   0.3238   0.3243   0.3261   0.3267   0.3278   0.3285   0.3297
  0.3305   0.3312   0.3324   0.3377   0.3419   0.3428   0.3439   0.3457
  0.3466   0.3470   0.3484   0.3486   0.3500   0.3502   0.3508   0.3516
  0.3527   0.3534   0.3549   0.3558   0.3577   0.3581   0.3599   0.3604
  0.3612   0.3621   0.3627   0.3639   0.3650   0.3660   0.3662   0.3671
  0.3686   0.3697   0.3704   0.3708   0.3715   0.3730   0.3749   0.3762
  0.3777   0.3790   0.3804   0.3811   0.3831   0.3856   0.3865   0.3874
  0.3893   0.3905   0.3945   0.3954   0.3979   0.3992   0.4016   0.4027
  0.4041   0.4051   0.4067   0.4079   0.4089   0.4119   0.4132   0.4134
  0.4138   0.4140   0.4148   0.4156   0.4158   0.4163   0.4165   0.4169
  0.4181   0.4184   0.4191   0.4198   0.4213   0.4234   0.4263   0.4278
  0.4294   0.4312   0.4319   0.4337   0.4369   0.4385   0.4403   0.4456
  0.4475   0.4504   0.4544   0.4555   0.4559   0.4589   0.4600   0.4625
  0.4636   0.4646   0.4703   0.4739   0.4752   0.4825   0.4852   0.4902
  0.4951   0.5000   0.5114   0.5300   0.5322   0.5473   0.5515   0.5537
  0.5591   0.5708   0.5737   0.5759   0.5819   0.5833   0.5862   0.5946
  0.5983   0.6115   0.6132   0.6208   0.6228   0.6257   0.6333   0.6378
  0.6416   0.6437   0.6496   0.6556   0.6601   0.6655   0.6672   0.6760
  0.6780   0.6844   0.6904   0.6924   0.6973   0.6991   0.7013   0.7101
  0.7130   0.7236   0.7298   0.7364   0.7368   0.7414   0.7429   0.7474
  0.7490   0.7515   0.7559   0.7593   0.7656   0.7673   0.7693   0.7734
  0.7802   0.7852   0.7890   0.7904   0.7935   0.7977   0.7984   0.8029
  0.8057   0.8094   0.8229   0.8300   0.8336   0.8356   0.8376   0.8431
  0.8450   0.8489   0.8520   0.8525   0.8611   0.8643   0.8692   0.8720
  0.8769   0.8785   0.8800   0.8825   0.8884   0.8918   0.8933   0.8944
  0.8955   0.9004   0.9030   0.9053   0.9058   0.9073   0.9096   0.9114
  0.9141   0.9160   0.9193   0.9205   0.9216   0.9231   0.9263   0.9276
  0.9291   0.9297   0.9320   0.9342   0.9373   0.9390   0.9405   0.9413
  0.9428   0.9457   0.9469   0.9494   0.9503   0.9512   0.9526   0.9554
  0.9598   0.9623   0.9635   0.9647   0.9678   0.9703   0.9731   0.9774
  0.9800   0.9808   0.9825   0.9864   0.9915   0.9942   0.9975   1.0017
  1.0033   1.0066   1.0078   1.0108   1.0134   1.0159   1.0224   1.0245
  1.0268   1.0289   1.0360   1.0377   1.0386   1.0419   1.0434   1.0463
  1.0519   1.0541   1.0568   1.0583   1.0618   1.0634   1.0694   1.0721
  1.0761   1.0780   1.0836   1.0878   1.0981   1.1048   1.1090   1.1169
  1.1204   1.1311   1.1352   1.1411   1.1443   1.1444   1.1505   1.1519
  1.1540   1.1575   1.1595   1.1642   1.1687   1.1708   1.1733   1.1765
  1.1803   1.1822   1.1848   1.1865   1.1950   1.1977   1.2040   1.2070
  1.2108   1.2141   1.2169   1.2186   1.2224   1.2244   1.2291   1.2298
  1.2324   1.2330   1.2368   1.2396   1.2435   1.2459   1.2481   1.2536
  1.2577   1.2608   1.2642   1.2651   1.2670   1.2700   1.2720   1.2745
  1.2761   1.2802   1.2853   1.2882   1.2944   1.2952   1.2970   1.3002
  1.3022   1.3046   1.3073   1.3095   1.3129   1.3155   1.3215   1.3236
  1.3263   1.3311   1.3337   1.3378   1.3390   1.3406   1.3421   1.3446
  1.3498   1.3531   1.3561   1.3579   1.3596   1.3628   1.3685   1.3745
  1.3866   1.3958   1.4077   1.4121   1.4177   1.4249   1.4304   1.4358
  1.4430   1.4484   1.4502   1.4551   1.4622   1.4630   1.4729   1.4800
  1.4828   1.4882   1.4970   1.5019   1.5070   1.5130   1.5180   1.5277
  1.5309   1.5377   1.5427   1.5449   1.5529   1.5634   1.5651   1.5689
  1.5717   1.5815   1.5867   1.5922   1.5958   1.6010   1.6039   1.6146
  1.6190   1.6220   1.6268   1.6363   1.6401   1.6478   1.6601   1.6607
  1.6776   1.6798   1.6901   1.7018   1.7077   1.7148   1.7197   1.7367
  1.7432   1.7611   1.7621   1.7706   1.7785   1.7837   1.7881   1.7983
  1.8002   1.8037   1.8077   1.8124   1.8186   1.8227   1.8268   1.8320
  1.8335   1.8377   1.8460   1.8502   1.8539   1.8596   1.8634   1.8648
  1.8664   1.8705   1.8739   1.8765   1.8795   1.8801   1.8825   1.8872
  1.8894   1.8932   1.8973   1.9006   1.9020   1.9047   1.9094   1.9155
  1.9234   1.9318   1.9371   1.9485   1.9503   1.9530   1.9597   1.9649
  1.9703   1.9750   1.9850   1.9899   1.9935   1.9993   2.0047   2.0220
  2.0264   2.0335   2.0373   2.0399   2.0421   2.0500   2.0513   2.0536
  2.0588   2.0665   2.0678   2.0730   2.0797   2.0863   2.0900   2.0941
  2.0982   2.1053   2.1056   2.1109   2.1141   2.1156   2.1182   2.1232
  2.1266   2.1296   2.1313   2.1351   2.1419   2.1443   2.1479   2.1571
  2.1669   2.1686   2.1720   2.1746   2.1783   2.1874   2.1903   2.1940
  2.1948   2.2001   2.2075   2.2089   2.2107   2.2144   2.2157   2.2173
  2.2219   2.2234   2.2289   2.2337   2.2453   2.2483   2.2604   2.2627
  2.2765   2.2813   2.2908   2.2936   2.2978   2.3005   2.3111   2.3151
  2.3225   2.3279   2.3314   2.3382   2.3461   2.3489   2.3537   2.3677
  2.3702   2.3740   2.3759   2.3803   2.3877   2.3912   2.3960   2.4033
  2.4129   2.4165   2.4206   2.4223   2.4287   2.4316   2.4442   2.4455
  2.4519   2.4526   2.4584   2.4628   2.4676   2.4756   2.4784   2.4837
  2.4932   2.4976   2.5045   2.5147   2.5253   2.5271   2.5310   2.5342
  2.5473   2.5532   2.5631   2.5669   2.5734   2.5776   2.5829   2.5884
  2.5896   2.5953   2.5980   2.5990   2.6082   2.6189   2.6261   2.6354
  2.6418   2.6461   2.6579   2.6696   2.6718   2.6761   2.6850   2.6881
  2.6913   2.6943   2.6974   2.7008   2.7051   2.7100   2.7141   2.7168
  2.7231   2.7264   2.7362   2.7369   2.7430   2.7467   2.7509   2.7570
  2.7604   2.7667   2.7715   2.7744   2.7758   2.7826   2.7893   2.7950
  2.8029   2.8071   2.8105   2.8130   2.8171   2.8219   2.8251   2.8255
  2.8294   2.8334   2.8377   2.8432   2.8555   2.8600   2.8700   2.8849
  2.8986   2.9012   2.9150   2.9221   2.9262   2.9267   2.9326   2.9431
  2.9447   2.9508   2.9536   2.9547   2.9611   2.9683   2.9710   2.9785
  2.9797   2.9894   2.9918   2.9976   3.0075   3.0121   3.0133   3.0203
  3.0233   3.0293   3.0347   3.0366   3.0428   3.0479   3.0530   3.0601
  3.0679   3.0806   3.0885   3.0946   3.1007   3.1017   3.1101   3.1136
  3.1172   3.1193   3.1313   3.1516   3.1850   3.1942   3.2165   3.2336
  3.2528   3.2791   3.2857   3.2952   3.3183   3.3194   3.3347   3.3480
  3.3576   3.3716   3.3863   3.4015   3.4102   3.5230   3.5498   3.5781
  3.5894   3.5973   3.6125   3.6226   3.7001   3.7191   3.7341   3.7525
  4.3710   4.4047   4.4192   4.4317   4.4531   4.4547   4.4730   4.4738
  4.4885   4.4980   4.5038   4.5150   4.5191   4.5232   4.5306   4.5378
  4.5396   4.5440   4.5503   4.5578   4.5670   4.5781   4.5809   4.5855
  4.5938   4.6029   4.6055   4.6185   4.6260   4.6348   4.6401   4.6616
  4.6668   4.6746   4.6947   4.7159   4.7475   4.7734   4.7804   4.7974
  4.8059   4.8148   4.8393   4.8783   4.9519   4.9701   5.0074   5.0116
  5.0453   5.0476   5.0639   5.0717   5.0973   5.2874   5.3077   5.3433
  5.3708   5.4333   5.4657   5.4848  24.5119
 --------------------------------------------------------------

          Ground-State Mulliken Net Atomic Charges

     Atom                 Charge (a.u.)
  ----------------------------------------
      1 Fe                    0.519593
      2 C                    -0.050607
      3 C                     0.008063
      4 C                     0.076909
      5 C                     0.041138
      6 C                    -0.116362
      7 C                    -0.014969
      8 C                    -0.350076
      9 C                     0.163248
     10 C                     0.171270
     11 C                    -0.024362
     12 C                    -0.002229
     13 C                     0.076093
     14 C                    -0.036422
     15 C                     0.038164
     16 C                     0.086352
     17 C                     0.018736
     18 C                    -0.039706
     19 C                    -0.018591
     20 C                    -0.129722
     21 C                     0.119815
     22 C                    -0.052709
     23 C                    -0.098437
     24 C                     0.141459
     25 C                    -0.113244
     26 C                     0.021200
     27 C                    -0.246060
     28 C                    -0.160253
     29 C                    -0.112364
     30 C                     0.022060
     31 C                     0.174839
     32 C                    -0.043844
     33 C                     0.060897
     34 C                     0.054834
     35 C                    -0.058560
     36 C                    -0.020460
     37 C                    -0.060729
     38 C                     0.135719
     39 C                    -0.047541
     40 C                    -0.024761
     41 C                     0.150660
     42 C                    -0.062954
     43 C                    -0.051004
     44 C                    -0.041901
     45 C                     0.098230
     46 C                     0.018608
     47 C                     0.009535
     48 C                    -0.064843
     49 C                    -0.034304
     50 C                    -0.043081
     51 C                     0.035175
     52 C                    -0.050763
     53 C                    -0.051503
     54 C                     0.048744
     55 C                     0.091724
     56 C                    -0.018229
     57 C                     0.039354
     58 C                     0.024565
     59 C                    -0.027418
     60 C                    -0.059859
     61 C                    -0.119118
  ----------------------------------------
  Sum of atomic charges =     0.000000

 -----------------------------------------------------------------
                    Cartesian Multipole Moments
 -----------------------------------------------------------------
    Charge (ESU x 10^10)
                 0.0000
    Dipole Moment (Debye)
         X      -0.4330      Y      -0.6575      Z       0.4240
       Tot       0.8942
    Quadrupole Moments (Debye-Ang)
        XX    -350.2592     XY       3.8058     YY    -352.1926
        XZ      -1.9690     YZ      -0.1247     ZZ    -349.7070
    Octopole Moments (Debye-Ang^2)
       XXX     -36.0145    XXY      -6.4261    XYY     -12.6646
       YYY     -17.2615    XXZ       4.6123    XYZ      -1.1213
       YYZ       4.5586    XZZ     -14.6287    YZZ      -2.7863
       ZZZ       1.7154
    Hexadecapole Moments (Debye-Ang^3)
      XXXX   -9465.9421   XXXY      63.9443   XXYY   -3041.9572
      XYYY      90.8558   YYYY   -8734.3447   XXXZ     -35.4419
      XXYZ       3.4561   XYYZ      -5.9286   YYYZ      -4.3840
      XXZZ   -2956.8156   XYZZ      16.0634   YYZZ   -2841.0641
      XZZZ     -24.1323   YZZZ       3.1587   ZZZZ   -8327.5843
 -----------------------------------------------------------------
 Calculating analytic gradient of the SCF energy
 Gradient of SCF Energy
            1           2           3           4           5           6
    1   0.0407954   0.0016874  -0.0604653  -0.0189058   0.0381117   0.0468781
    2  -0.0010162  -0.0463160  -0.0056494   0.0519644   0.0511091  -0.0388929
    3   0.0035447   0.0226312   0.0085340  -0.0211368  -0.0216025   0.0154599
            7           8           9          10          11          12
    1   0.0149969   0.0018908  -0.0431548   0.0022881  -0.0316979   0.0474023
    2   0.0284627   0.0117089  -0.0571265  -0.0281569   0.0408252   0.0189514
    3  -0.0049633  -0.0042920  -0.0332265   0.0337915   0.0084763  -0.0038225
           13          14          15          16          17          18
    1  -0.0282664   0.0095225   0.0223058   0.0430219   0.0243719  -0.0192961
    2  -0.0133335  -0.0630455   0.0848442   0.0309503  -0.0466998  -0.0460383
    3   0.0351046   0.0012435  -0.0289076   0.0452621   0.0336163  -0.0247568
           19          20          21          22          23          24
    1  -0.0323152  -0.0218968   0.0194073  -0.0337210   0.0096438  -0.0185116
    2   0.0195984   0.0004107   0.0314684  -0.0143588   0.0118871   0.0520153
    3  -0.0526691   0.0387170  -0.0096423   0.0067508  -0.0393013   0.0363944
           25          26          27          28          29          30
    1   0.0383460   0.0028828  -0.0053101  -0.0104034  -0.0433331  -0.0350644
    2   0.0426887  -0.0217904  -0.0398408   0.0253935   0.0191619   0.0062263
    3   0.0334264  -0.0419506  -0.0061534   0.0245173   0.0430989  -0.0195972
           31          32          33          34          35          36
    1  -0.0301627  -0.0027730   0.0455144   0.0224480  -0.0182810  -0.0002781
    2   0.0000811   0.0453620  -0.0007665  -0.0217805  -0.0145729   0.0427212
    3  -0.0353314   0.0160239   0.0202182   0.0334515  -0.0319130   0.0117184
           37          38          39          40          41          42
    1   0.0462660   0.0015026  -0.0952355   0.0649137   0.0281347  -0.0157754
    2  -0.0375832  -0.0442416  -0.0174907  -0.0033179   0.0069697  -0.0415786
    3  -0.0290436  -0.0392904   0.0043988   0.0199865  -0.0315892   0.0107790
           43          44          45          46          47          48
    1  -0.0317227  -0.0265899   0.0133478   0.0492855   0.0132888  -0.0389271
    2   0.0409474   0.0297374  -0.0133249  -0.0402394  -0.0034740  -0.0341683
    3  -0.0321949   0.0403705   0.0544623  -0.0087183  -0.0533378   0.0248029
           49          50          51          52          53          54
    1  -0.0486112   0.0107316   0.0548449   0.0208427  -0.0118713  -0.0507638
    2   0.0355645   0.0414499   0.0141168  -0.0555722   0.0074190  -0.0127578
    3  -0.0070452  -0.0224788  -0.0168685   0.0233052  -0.0475754   0.0022350
           55          56          57          58          59          60
    1   0.0287990   0.0195870  -0.0368288  -0.0514508   0.0210362   0.0532506
    2   0.0113723  -0.0449487  -0.0328891   0.0312931   0.0347448   0.0043411
    3   0.0355714  -0.0321676  -0.0348238   0.0119547   0.0298829   0.0127485
           61
    1   0.0042669
    2  -0.0328157
    3  -0.0080788
 Max gradient component =       9.524E-02
 RMS gradient           =       3.221E-02
 Gradient time:  CPU 9092.24 s  wall 1503.47 s
 Geometry Optimization Parameters
   NAtoms,    NIC,     NZ,  NCons,   NDum,   NFix, NCnnct, MaxDiis
       61     955       0       0       0       0       0       0


** GEOMETRY OPTIMIZATION IN DELOCALIZED INTERNAL COORDINATES **
   Searching for a Minimum

   Optimization Cycle:   1

                       Coordinates (Angstroms)
     ATOM                X               Y               Z
      1  Fe       -1.8109614201   -0.4210610157    0.0732852492
      2  C        -0.1079148256   -0.2342817490   -3.3836458906
      3  C         0.8541077492   -1.2054530301   -3.1308868916
      4  C         0.2030813786   -2.2887218455   -2.5475057614
      5  C        -1.1627671423   -1.9880906462   -2.4501317590
      6  C        -1.3377253552   -0.7095135797   -2.9565473599
      7  C        -2.3059071297    0.1648547407   -2.4339187839
      8  C        -3.2047062984   -0.2655714216   -1.3292733241
      9  C        -3.2009845613   -1.7492108064   -0.9125033782
     10  C        -1.9823909986   -2.4790547643   -1.4058346150
     11  C        -1.2853869815   -3.0907768381   -0.3492026136
     12  C         0.1087540659   -3.3672249419   -0.4347956889
     13  C         0.8488972182   -3.0651142485   -1.5715391660
     14  C         2.2473284691   -2.7976994450   -1.1836767737
     15  C         2.8413715343   -1.5607328988   -1.7545286092
     16  C         2.1538795898   -0.8246123223   -2.7236535183
     17  C         2.4423098529    0.5304047764   -2.5656563010
     18  C         3.2526453728    0.6570272097   -1.4478923763
     19  C         3.4535619918   -0.6209058661   -0.9226567707
     20  C         3.5053345241   -0.8105660773    0.4822019731
     21  C         2.9388611964   -1.9429987946    1.0973543101
     22  C         2.2272254321   -2.8700565500    0.2893890747
     23  C         0.9306183492   -3.2485606582    0.6860229086
     24  C         0.3557075423   -2.8001118762    1.8873623021
     25  C        -1.0108164145   -2.5146635713    1.9482475772
     26  C        -1.8849503523   -2.7522366909    0.8625213561
     27  C        -3.0483695408   -1.8510917780    0.5852545012
     28  C        -3.1804114632   -0.5876705488    1.4872339992
     29  C        -3.4734127391    0.8044051507    0.9869510057
     30  C        -3.5306198595    0.9729109071   -0.5118347869
     31  C        -2.7550932032    2.0923441447   -1.1405985318
     32  C        -1.9932011195    3.0675741138   -0.3000333610
     33  C        -1.8300990428    2.7482238915    1.1226217988
     34  C        -2.4979450974    1.6535076101    1.7194362009
     35  C        -1.8019749873    0.8890475922    2.6699644487
     36  C        -2.1749648081   -0.4501673119    2.5845995748
     37  C        -1.1563252994   -1.4151200330    2.7871690577
     38  C         0.1210073239   -1.0658340831    3.2329195328
     39  C         1.0585155854   -1.9692316642    2.7464606712
     40  C         2.4483037116   -1.5468456456    2.4327887535
     41  C         2.6882669796   -0.0949819772    2.4962179280
     42  C         3.3588231204    0.3003063473    1.3319486193
     43  C         3.1531469093    1.5900437024    0.7782336856
     44  C         3.1060299699    1.7701936099   -0.5978896619
     45  C         2.1465848513    2.7495972533   -0.8776670803
     46  C         1.5985600264    3.1702994347    0.3255576649
     47  C         2.2284371519    2.4606531749    1.3498235832
     48  C         1.4865414862    2.0429167769    2.4630903950
     49  C         1.6982455003    0.7781851378    3.0129938312
     50  C         0.4476192119    0.2889058018    3.3961155583
     51  C        -0.5080031936    1.2509511829    3.0929199278
     52  C         0.1277645799    2.3325244519    2.5260701019
     53  C        -0.5175479731    3.0584498757    1.5083584476
     54  C         0.2155089167    3.4844240962    0.4035459997
     55  C        -0.6172773798    3.4381098962   -0.7228536769
     56  C        -0.0497921205    2.9280858300   -1.9120215329
     57  C         1.3141015071    2.6165709867   -2.0040922024
     58  C         1.4627561978    1.5124214422   -2.8365908213
     59  C         0.1960850403    1.1263408087   -3.2411439836
     60  C        -0.7373650236    1.9882584645   -2.6715392798
     61  C        -2.0165299388    1.5241609874   -2.2908297020
   Point Group: c1    Number of degrees of freedom:   177


   Energy is  -3548.723746207


 Attempting to generate delocalized internal coordinates
 Initial Hessian constructed with Jon Baker's OPTIMIZE code

177 Hessian modes will be used to form the next step
  Hessian Eigenvalues:
     0.026178    0.026531    0.027369    0.028273    0.028577    0.028791
     0.029025    0.029114    0.029172    0.029666    0.030103    0.030280
     0.030802    0.031009    0.031157    0.031242    0.031374    0.031868
     0.031921    0.032212    0.032444    0.032637    0.032814    0.033119
     0.033353    0.033943    0.034304    0.034846    0.035070    0.035823
     0.036235    0.037060    0.038356    0.039134    0.039447    0.040120
     0.040320    0.041197    0.042315    0.043401    0.043966    0.045576
     0.046592    0.047606    0.051533    0.052090    0.053377    0.055659
     0.057899    0.059823    0.063869    0.067606    0.070163    0.071374
     0.076975    0.078242    0.082064    0.084922    0.088759    0.100010
     0.105854    0.115398    0.116425    0.117184    0.117990    0.120853
     0.122259    0.124641    0.126021    0.128771    0.129372    0.130793
     0.132248    0.132547    0.133831    0.133985    0.134949    0.137345
     0.137644    0.138884    0.139177    0.141380    0.143017    0.144454
     0.145560    0.148730    0.151127    0.154417    0.155745    0.170895
     0.174069    0.181414    0.191682    0.194671    0.202143    0.205627
     0.216460    0.218001    0.224773    0.230463    0.235609    0.237510
     0.239138    0.240369    0.242204    0.245804    0.246846    0.254714
     0.256903    0.257151    0.261609    0.264577    0.269900    0.273391
     0.274612    0.278339    0.281310    0.282922    0.287033    0.315548
     0.317238    0.327449    0.330186    0.335459    0.338106    0.347992
     0.352504    0.355260    0.359465    0.364111    0.371536    0.375542
     0.383002    0.385065    0.387436    0.393738    0.395315    0.401176
     0.404268    0.408119    0.410182    0.411528    0.413104    0.415081
     0.416913    0.418562    0.419578    0.421285    0.422894    0.424230
     0.425761    0.427608    0.428693    0.430572    0.432763    0.435495
     0.436613    0.440043    0.441496    0.444552    0.446954    0.448441
     0.450263    0.451984    0.452991    0.453553    0.455757    0.457911
     0.459829    0.460139    0.460900    0.461318    0.462375    0.463338
     0.467084    0.471158    0.473201

 Minimum search - taking simple RFO step
 Searching for Lamda that Minimizes Along All modes
 Value Taken    Lamda =  -0.16533755
 Calculated Step too Large.  Step scaled by  0.481355
 Step Taken.  Stepsize is  0.300000

                             Maximum     Tolerance    Cnvgd?
         Gradient           0.190899      0.000300      NO
         Displacement       0.158125      0.001200      NO
         Energy change     *********      0.000001      NO


 New Cartesian Coordinates Obtained by Inverse Iteration

 Displacement from previous Coordinates is:  0.323518
 ----------------------------------------------------------------
             Standard Nuclear Orientation (Angstroms)
    I     Atom           X                Y                Z
 ----------------------------------------------------------------
    1      Fe     -1.7934495207    -0.4250594199     0.0762813589
    2      C      -0.1181727910    -0.2294089030    -3.4171742467
    3      C       0.8547720392    -1.2148856164    -3.1593115508
    4      C       0.2025622844    -2.3114825442    -2.5637674589
    5      C      -1.1751869582    -2.0045630349    -2.4626898721
    6      C      -1.3550473211    -0.7091531238    -2.9764096304
    7      C      -2.3106791547     0.1619079681    -2.4358081025
    8      C      -3.1863078494    -0.2651831058    -1.3220939224
    9      C      -3.1826880414    -1.7330859609    -0.9034151626
   10      C      -1.9809583565    -2.4801107522    -1.4113997361
   11      C      -1.2845181098    -3.1082325169    -0.3511965227
   12      C       0.1003993128    -3.3905964063    -0.4382645500
   13      C       0.8484572292    -3.0781599395    -1.5835157004
   14      C       2.2388931953    -2.7938117256    -1.1850893098
   15      C       2.8300252481    -1.5791434220    -1.7539181999
   16      C       2.1456610844    -0.8365573747    -2.7479273200
   17      C       2.4430420217     0.5364917467    -2.5887813140
   18      C       3.2615857438     0.6632125899    -1.4535851025
   19      C       3.4572422893    -0.6293018535    -0.9169234290
   20      C       3.5047783282    -0.8118445951     0.4820968883
   21      C       2.9254444961    -1.9481460347     1.0982125305
   22      C       2.2227030361    -2.8738723260     0.2891555079
   23      C       0.9248137861    -3.2694504090     0.6909447021
   24      C       0.3569997406    -2.8258825844     1.8909147164
   25      C      -1.0198931284    -2.5333621858     1.9556404147
   26      C      -1.8849238500    -2.7576046332     0.8700810008
   27      C      -3.0353163386    -1.8409020502     0.5877470379
   28      C      -3.1644186482    -0.5929429536     1.4799967894
   29      C      -3.4469554501     0.7968980211     0.9746395270
   30      C      -3.5003746050     0.9657001957    -0.5053947503
   31      C      -2.7352383615     2.0830688697    -1.1300817905
   32      C      -1.9888343078     3.0526364906    -0.3039103228
   33      C      -1.8372410412     2.7491553344     1.1178626026
   34      C      -2.4966280917     1.6535868627     1.7116418930
   35      C      -1.8079904430     0.8910088034     2.6841630839
   36      C      -2.1774149890    -0.4598728145     2.5908965018
   37      C      -1.1686675956    -1.4206781110     2.8073564323
   38      C       0.1158351582    -1.0642606739     3.2624913285
   39      C       1.0655524111    -1.9737525692     2.7549195561
   40      C       2.4282956525    -1.5478936826     2.4322994043
   41      C       2.6789070630    -0.0955337286     2.5103415967
   42      C       3.3615588873     0.3067605872     1.3391601277
   43      C       3.1654926631     1.5948286739     0.7895864524
   44      C       3.1201057536     1.7759739861    -0.6053618381
   45      C       2.1524300631     2.7701108234    -0.8896947588
   46      C       1.5973271116     3.1970907617     0.3296984278
   47      C       2.2331823492     2.4793459028     1.3690147938
   48      C       1.4935110052     2.0637419206     2.4822410974
   49      C       1.7015829045     0.7791932290     3.0370975658
   50      C       0.4390863871     0.2877707926     3.4286238322
   51      C      -0.5246405079     1.2593687841     3.1201263373
   52      C       0.1186450263     2.3566998382     2.5451039675
   53      C      -0.5212279323     3.0735828516     1.5221699482
   54      C       0.2182797712     3.5033630513     0.4069680397
   55      C      -0.6231640874     3.4444011853    -0.7299904953
   56      C      -0.0573687544     2.9474704173    -1.9188438885
   57      C       1.3223697652     2.6385451196    -2.0145630284
   58      C       1.4698691772     1.5199622344    -2.8616104554
   59      C       0.1862726868     1.1302636543    -3.2727068406
   60      C      -0.7522240328     1.9978135055    -2.6873942380
   61      C      -2.0196153364     1.5283175693    -2.2909340894
 ----------------------------------------------------------------
 Molecular Point Group                 C1    NOp =  1
 Largest Abelian Subgroup              C1    NOp =  1
 Nuclear Repulsion Energy =        9752.02257496 hartrees
 There are      193 alpha and      193 beta electrons
 Applying Cartesian multipole field
    Component          Value
    ---------          -----
     (2,0,0)        1.00000E-11
     (0,2,0)        2.00000E-11
     (0,0,2)       -3.00000E-11
 Nucleus-field energy     =     0.0000000110 hartrees
 Requested basis set is 6-31++G(d,p)
 There are 308 shells and 1176 basis functions
 A cutoff of  1.0D-11 yielded  34915 shell pairs
 There are    544934 function pairs (    547667 Cartesian)
 Smallest overlap matrix eigenvalue = 1.57E-09

 Q-Chem warning in module stvman/mkSTV.C, line 318:

 Overlap eigenvalue is smaller than square root of threshold
 Use THRESH >= 12 to get rid of this warning

 Linear dependence detected in AO basis
 Tighter screening thresholds may be required for diffuse basis sets
 Use S2THRESH > 14 and THRESH = 14 in case of SCF convergence issues
 Number of orthogonalized atomic orbitals = 1118
 Maximum deviation from orthogonality = 5.039E-10
 Guess MOs from SCF MO coefficient file

 -----------------------------------------------------------------------
  General SCF calculation program by
  Eric Jon Sundstrom, Paul Horn, Yuezhi Mao, Dmitri Zuev, Alec White,
  David Stuck, Shaama M.S., Shane Yost, Joonho Lee, David Small,
  Daniel Levine, Susi Lehtola, Hugh Burton, Evgeny Epifanovsky,
  Bang C. Huynh
 -----------------------------------------------------------------------
 Exchange:     0.2220 Hartree-Fock + 1.0000 wB97X-D + LR-HF
 Correlation:  1.0000 wB97X-D
 Using SG-2 standard quadrature grid
 Dispersion:   Grimme D
 using 8 threads for integral computing
 -------------------------------------------------------
 OpenMP Integral computing Module                
 Release: version 1.0, May 2013, Q-Chem Inc. Pittsburgh 
 -------------------------------------------------------
 using 8 threads for integral computing
 -------------------------------------------------------
 OpenMP Integral computing Module                
 Release: version 1.0, May 2013, Q-Chem Inc. Pittsburgh 
 -------------------------------------------------------
 A restricted SCF calculation will be
 performed using DIIS
 SCF converges when DIIS error is below 1.0e-08
 ---------------------------------------
  Cycle       Energy         DIIS error
 ---------------------------------------
    1   -3548.7816331866      2.79e-04  
    2   -3548.7904986245      1.05e-04  
    3   -3548.7860292189      2.56e-04  
    4   -3548.7906194318      1.44e-04  
    5   -3548.7924283043      1.09e-05  
    6   -3548.7924683669      6.34e-06  
    7   -3548.7924794547      3.02e-06  
    8   -3548.7924841146      1.30e-06  
    9   -3548.7924870559      1.18e-06  
   10   -3548.7924890089      8.93e-07  
   11   -3548.7924912533      6.96e-07  
   12   -3548.7924938685      5.75e-07  
   13   -3548.7924960076      4.65e-07  
   14   -3548.7924975412      3.45e-07  
   15   -3548.7924984528      2.46e-07  
   16   -3548.7924987631      1.83e-07  
   17   -3548.7924989164      1.58e-07  
   18   -3548.7924989992      1.30e-07  
   19   -3548.7924990765      1.11e-07  
   20   -3548.7924991433      9.54e-08  
   21   -3548.7924992013      7.49e-08  
   22   -3548.7924992606      5.62e-08  
   23   -3548.7924992865      4.53e-08  
   24   -3548.7924992963      3.39e-08  
   25   -3548.7924993022      3.27e-08  
   26   -3548.7924993058      2.70e-08  
   27   -3548.7924993088      2.03e-08  
   28   -3548.7924993115      1.51e-08  
   29   -3548.7924993129      1.28e-08  
   30   -3548.7924993137      8.73e-09  Convergence criterion met
 ---------------------------------------
 SCF time:   CPU 85914.70s  wall 13058.00s 
 SCF   energy in the final basis set =    -3548.7924993137
 Total energy in the final basis set =    -3548.7924993137

 --------------------------------------------------------------

                    Orbital Energies (a.u.)
 --------------------------------------------------------------

 Alpha MOs
 -- Occupied --
******** -30.1890 -26.0473 -26.0352 -26.0217 -10.4048 -10.3988 -10.3972
-10.3940 -10.3926 -10.3880 -10.3812 -10.3793 -10.3744 -10.3716 -10.3700
-10.3700 -10.3664 -10.3632 -10.3630 -10.3622 -10.3614 -10.3611 -10.3610
-10.3610 -10.3610 -10.3596 -10.3589 -10.3584 -10.3581 -10.3580 -10.3550
-10.3549 -10.3537 -10.3537 -10.3528 -10.3527 -10.3525 -10.3520 -10.3520
-10.3515 -10.3514 -10.3509 -10.3508 -10.3507 -10.3506 -10.3506 -10.3504
-10.3503 -10.3502 -10.3502 -10.3498 -10.3497 -10.3495 -10.3494 -10.3493
-10.3489 -10.3488 -10.3484 -10.3480 -10.3478 -10.3473 -10.3452 -10.3451
-10.3442  -3.5510  -2.3383  -2.3196  -2.2945  -1.1027  -1.0862  -1.0843
 -1.0740  -1.0481  -1.0479  -1.0444  -1.0369  -1.0350  -1.0122  -1.0065
 -1.0004  -0.9629  -0.9606  -0.9584  -0.9561  -0.9161  -0.9157  -0.9134
 -0.9123  -0.9114  -0.8912  -0.8888  -0.8881  -0.8871  -0.8365  -0.8318
 -0.8312  -0.8298  -0.8274  -0.8262  -0.8254  -0.8241  -0.7753  -0.7730
 -0.7707  -0.7431  -0.7419  -0.7364  -0.7320  -0.7303  -0.7296  -0.7291
 -0.7253  -0.7107  -0.6711  -0.6705  -0.6672  -0.6637  -0.6414  -0.6386
 -0.6382  -0.6373  -0.6355  -0.6250  -0.6239  -0.6198  -0.6035  -0.5898
 -0.5889  -0.5855  -0.5795  -0.5791  -0.5758  -0.5739  -0.5719  -0.5705
 -0.5690  -0.5477  -0.5467  -0.5454  -0.5431  -0.5424  -0.5350  -0.5316
 -0.5306  -0.5296  -0.5277  -0.5269  -0.5256  -0.5244  -0.5236  -0.5227
 -0.5200  -0.5193  -0.4973  -0.4962  -0.4950  -0.4930  -0.4779  -0.4738
 -0.4674  -0.4635  -0.4607  -0.4593  -0.4573  -0.4560  -0.4494  -0.4479
 -0.4468  -0.4454  -0.4445  -0.4432  -0.4425  -0.4405  -0.4336  -0.3970
 -0.3911  -0.3836  -0.3777  -0.3705  -0.3586  -0.3564  -0.3542  -0.3540
 -0.3337  -0.3180  -0.3114  -0.3089  -0.3012  -0.2983  -0.2839  -0.2746
 -0.2603
 -- Virtual --
 -0.0949  -0.0833  -0.0726  -0.0503  -0.0470  -0.0303  -0.0255  -0.0186
  0.0042   0.0120   0.0151   0.0185   0.0268   0.0279   0.0293   0.0315
  0.0531   0.0604   0.0616   0.0653   0.0750   0.0768   0.0827   0.0861
  0.0881   0.0887   0.0903   0.0927   0.0930   0.0976   0.0986   0.1047
  0.1065   0.1068   0.1069   0.1075   0.1079   0.1084   0.1092   0.1123
  0.1138   0.1236   0.1262   0.1263   0.1267   0.1272   0.1278   0.1282
  0.1291   0.1299   0.1362   0.1446   0.1461   0.1482   0.1487   0.1500
  0.1523   0.1529   0.1531   0.1537   0.1541   0.1543   0.1544   0.1555
  0.1565   0.1569   0.1589   0.1645   0.1671   0.1750   0.1791   0.1814
  0.1826   0.1831   0.1843   0.1849   0.1851   0.1854   0.1857   0.1862
  0.1879   0.1885   0.1885   0.1911   0.1948   0.1988   0.2040   0.2081
  0.2153   0.2156   0.2197   0.2201   0.2242   0.2261   0.2270   0.2273
  0.2280   0.2292   0.2301   0.2308   0.2318   0.2325   0.2352   0.2410
  0.2446   0.2475   0.2479   0.2498   0.2526   0.2529   0.2550   0.2556
  0.2564   0.2578   0.2609   0.2636   0.2650   0.2677   0.2678   0.2704
  0.2706   0.2721   0.2734   0.2741   0.2775   0.2832   0.2874   0.2886
  0.2904   0.2957   0.2962   0.2985   0.3065   0.3073   0.3082   0.3094
  0.3105   0.3110   0.3126   0.3135   0.3136   0.3145   0.3148   0.3164
  0.3173   0.3181   0.3186   0.3206   0.3214   0.3223   0.3229   0.3234
  0.3238   0.3240   0.3248   0.3261   0.3268   0.3270   0.3281   0.3296
  0.3300   0.3311   0.3319   0.3373   0.3424   0.3427   0.3452   0.3457
  0.3472   0.3475   0.3479   0.3487   0.3493   0.3503   0.3507   0.3513
  0.3520   0.3525   0.3537   0.3557   0.3560   0.3573   0.3583   0.3592
  0.3602   0.3611   0.3612   0.3637   0.3646   0.3656   0.3668   0.3671
  0.3682   0.3696   0.3702   0.3706   0.3709   0.3722   0.3732   0.3757
  0.3761   0.3773   0.3782   0.3792   0.3810   0.3845   0.3870   0.3876
  0.3895   0.3909   0.3945   0.3963   0.3974   0.3994   0.4015   0.4021
  0.4025   0.4050   0.4061   0.4074   0.4087   0.4119   0.4129   0.4134
  0.4136   0.4138   0.4144   0.4150   0.4155   0.4159   0.4160   0.4165
  0.4175   0.4177   0.4184   0.4192   0.4208   0.4226   0.4254   0.4270
  0.4286   0.4304   0.4310   0.4328   0.4358   0.4371   0.4388   0.4443
  0.4459   0.4502   0.4523   0.4542   0.4547   0.4565   0.4591   0.4596
  0.4616   0.4629   0.4663   0.4671   0.4695   0.4746   0.4774   0.4887
  0.4929   0.4991   0.5113   0.5306   0.5324   0.5453   0.5488   0.5517
  0.5577   0.5651   0.5732   0.5748   0.5789   0.5818   0.5826   0.5884
  0.5935   0.5967   0.6045   0.6064   0.6117   0.6143   0.6264   0.6300
  0.6352   0.6359   0.6430   0.6457   0.6533   0.6565   0.6633   0.6678
  0.6707   0.6768   0.6843   0.6862   0.6892   0.6975   0.6995   0.7075
  0.7114   0.7205   0.7272   0.7312   0.7339   0.7380   0.7391   0.7438
  0.7466   0.7501   0.7525   0.7543   0.7591   0.7615   0.7656   0.7690
  0.7722   0.7803   0.7809   0.7842   0.7876   0.7900   0.7910   0.7965
  0.7999   0.8036   0.8125   0.8200   0.8291   0.8305   0.8323   0.8374
  0.8391   0.8411   0.8455   0.8500   0.8609   0.8647   0.8681   0.8712
  0.8752   0.8767   0.8786   0.8810   0.8873   0.8889   0.8921   0.8930
  0.8946   0.8967   0.9007   0.9037   0.9050   0.9071   0.9094   0.9105
  0.9127   0.9151   0.9174   0.9195   0.9215   0.9225   0.9250   0.9264
  0.9280   0.9297   0.9317   0.9336   0.9355   0.9370   0.9386   0.9392
  0.9412   0.9444   0.9456   0.9474   0.9478   0.9498   0.9506   0.9539
  0.9585   0.9607   0.9624   0.9629   0.9665   0.9691   0.9723   0.9767
  0.9795   0.9798   0.9814   0.9848   0.9896   0.9935   0.9963   0.9993
  1.0020   1.0056   1.0067   1.0092   1.0114   1.0159   1.0216   1.0235
  1.0250   1.0278   1.0335   1.0354   1.0369   1.0402   1.0414   1.0439
  1.0491   1.0519   1.0550   1.0559   1.0589   1.0610   1.0696   1.0717
  1.0756   1.0775   1.0829   1.0901   1.1012   1.1052   1.1109   1.1186
  1.1224   1.1319   1.1346   1.1427   1.1437   1.1457   1.1516   1.1525
  1.1546   1.1570   1.1580   1.1641   1.1667   1.1688   1.1710   1.1756
  1.1776   1.1806   1.1821   1.1834   1.1943   1.1976   1.2023   1.2049
  1.2091   1.2108   1.2161   1.2174   1.2204   1.2249   1.2271   1.2275
  1.2301   1.2313   1.2352   1.2384   1.2435   1.2440   1.2461   1.2511
  1.2554   1.2582   1.2622   1.2641   1.2647   1.2688   1.2702   1.2724
  1.2744   1.2789   1.2839   1.2846   1.2919   1.2925   1.2965   1.2980
  1.2998   1.3018   1.3050   1.3072   1.3108   1.3127   1.3187   1.3193
  1.3234   1.3285   1.3305   1.3336   1.3350   1.3366   1.3377   1.3399
  1.3449   1.3473   1.3507   1.3523   1.3540   1.3577   1.3623   1.3701
  1.3817   1.3912   1.4021   1.4077   1.4114   1.4210   1.4235   1.4306
  1.4361   1.4434   1.4486   1.4519   1.4570   1.4583   1.4688   1.4754
  1.4779   1.4844   1.4956   1.5009   1.5045   1.5115   1.5138   1.5250
  1.5279   1.5355   1.5409   1.5435   1.5491   1.5631   1.5641   1.5664
  1.5712   1.5795   1.5845   1.5906   1.5920   1.5977   1.6020   1.6112
  1.6175   1.6194   1.6227   1.6304   1.6358   1.6465   1.6601   1.6648
  1.6768   1.6787   1.6888   1.7023   1.7086   1.7186   1.7208   1.7387
  1.7454   1.7587   1.7608   1.7663   1.7770   1.7844   1.7855   1.7947
  1.7984   1.8000   1.8051   1.8085   1.8148   1.8175   1.8198   1.8292
  1.8321   1.8346   1.8419   1.8448   1.8482   1.8504   1.8538   1.8561
  1.8592   1.8622   1.8626   1.8683   1.8694   1.8716   1.8734   1.8802
  1.8833   1.8880   1.8912   1.8925   1.8935   1.8958   1.8997   1.9071
  1.9116   1.9290   1.9321   1.9372   1.9427   1.9458   1.9520   1.9577
  1.9653   1.9676   1.9789   1.9831   1.9851   1.9979   2.0016   2.0176
  2.0215   2.0262   2.0313   2.0332   2.0354   2.0473   2.0503   2.0533
  2.0561   2.0638   2.0657   2.0708   2.0786   2.0844   2.0859   2.0882
  2.0937   2.0967   2.1014   2.1026   2.1044   2.1057   2.1098   2.1121
  2.1135   2.1193   2.1223   2.1240   2.1304   2.1401   2.1414   2.1531
  2.1621   2.1636   2.1651   2.1692   2.1728   2.1789   2.1840   2.1884
  2.1897   2.1932   2.2003   2.2017   2.2035   2.2063   2.2091   2.2124
  2.2164   2.2170   2.2225   2.2268   2.2384   2.2432   2.2525   2.2554
  2.2708   2.2760   2.2857   2.2875   2.2972   2.2978   2.3063   2.3084
  2.3189   2.3223   2.3303   2.3305   2.3391   2.3442   2.3486   2.3596
  2.3635   2.3649   2.3697   2.3734   2.3806   2.3841   2.3899   2.3932
  2.4066   2.4075   2.4104   2.4121   2.4215   2.4276   2.4330   2.4361
  2.4413   2.4450   2.4503   2.4537   2.4596   2.4634   2.4669   2.4776
  2.4784   2.4942   2.4998   2.5105   2.5202   2.5235   2.5263   2.5305
  2.5434   2.5492   2.5602   2.5623   2.5698   2.5725   2.5763   2.5804
  2.5839   2.5890   2.5926   2.5935   2.5981   2.6114   2.6249   2.6305
  2.6363   2.6416   2.6480   2.6613   2.6665   2.6686   2.6776   2.6814
  2.6852   2.6881   2.6906   2.6924   2.6972   2.7052   2.7060   2.7103
  2.7181   2.7192   2.7272   2.7312   2.7380   2.7407   2.7439   2.7518
  2.7553   2.7588   2.7641   2.7661   2.7681   2.7758   2.7806   2.7877
  2.7919   2.7998   2.8043   2.8056   2.8069   2.8130   2.8175   2.8186
  2.8233   2.8279   2.8297   2.8339   2.8498   2.8564   2.8678   2.8777
  2.8947   2.8972   2.9069   2.9154   2.9178   2.9201   2.9244   2.9357
  2.9376   2.9418   2.9442   2.9457   2.9520   2.9566   2.9588   2.9675
  2.9717   2.9741   2.9797   2.9833   2.9980   2.9997   3.0032   3.0110
  3.0125   3.0160   3.0236   3.0293   3.0330   3.0344   3.0447   3.0469
  3.0599   3.0727   3.0776   3.0865   3.0879   3.0920   3.0998   3.1049
  3.1074   3.1145   3.1229   3.1533   3.1808   3.1891   3.2129   3.2282
  3.2439   3.2756   3.2795   3.2913   3.3122   3.3139   3.3243   3.3367
  3.3476   3.3613   3.3744   3.3868   3.3958   3.5154   3.5346   3.5657
  3.5743   3.5838   3.5934   3.6030   3.6896   3.7093   3.7172   3.7355
  4.3824   4.4095   4.4212   4.4263   4.4500   4.4518   4.4610   4.4668
  4.4807   4.4966   4.5012   4.5118   4.5173   4.5216   4.5288   4.5336
  4.5355   4.5366   4.5464   4.5494   4.5576   4.5651   4.5701   4.5732
  4.5783   4.5911   4.5982   4.6139   4.6206   4.6314   4.6322   4.6540
  4.6585   4.6717   4.6900   4.7126   4.7401   4.7693   4.7735   4.7932
  4.8007   4.8084   4.8382   4.8753   4.9483   4.9658   4.9951   4.9962
  5.0366   5.0425   5.0541   5.0655   5.0869   5.2845   5.2954   5.3285
  5.3579   5.4234   5.4514   5.4772  24.4666
 --------------------------------------------------------------

          Ground-State Mulliken Net Atomic Charges

     Atom                 Charge (a.u.)
  ----------------------------------------
      1 Fe                    0.488725
      2 C                    -0.047204
      3 C                     0.004513
      4 C                     0.060428
      5 C                     0.039408
      6 C                    -0.103698
      7 C                     0.007184
      8 C                    -0.373935
      9 C                     0.175708
     10 C                     0.174130
     11 C                    -0.033972
     12 C                     0.004950
     13 C                     0.086556
     14 C                    -0.018683
     15 C                     0.013302
     16 C                     0.072075
     17 C                     0.004767
     18 C                    -0.044443
     19 C                    -0.014716
     20 C                    -0.113824
     21 C                     0.104651
     22 C                    -0.031332
     23 C                    -0.080966
     24 C                     0.123333
     25 C                    -0.107975
     26 C                     0.019745
     27 C                    -0.216664
     28 C                    -0.165539
     29 C                    -0.092651
     30 C                     0.000684
     31 C                     0.147759
     32 C                    -0.041129
     33 C                     0.068327
     34 C                     0.056234
     35 C                    -0.070992
     36 C                    -0.021951
     37 C                    -0.063768
     38 C                     0.112765
     39 C                    -0.063062
     40 C                    -0.023293
     41 C                     0.125721
     42 C                    -0.059516
     43 C                    -0.029887
     44 C                    -0.036774
     45 C                     0.088211
     46 C                     0.030076
     47 C                     0.008838
     48 C                    -0.052809
     49 C                    -0.026068
     50 C                    -0.029945
     51 C                     0.047405
     52 C                    -0.030227
     53 C                    -0.051349
     54 C                     0.032694
     55 C                     0.079980
     56 C                    -0.012537
     57 C                     0.033778
     58 C                     0.018739
     59 C                    -0.016374
     60 C                    -0.036786
     61 C                    -0.118617
  ----------------------------------------
  Sum of atomic charges =     0.000000

 -----------------------------------------------------------------
                    Cartesian Multipole Moments
 -----------------------------------------------------------------
    Charge (ESU x 10^10)
                 0.0000
    Dipole Moment (Debye)
         X      -0.4924      Y      -0.7274      Z       0.3901
       Tot       0.9611
    Quadrupole Moments (Debye-Ang)
        XX    -350.4949     XY       3.3851     YY    -352.5724
        XZ      -1.6543     YZ      -0.1888     ZZ    -350.5608
    Octopole Moments (Debye-Ang^2)
       XXX     -42.6297    XXY      -7.6125    XYY     -14.1390
       YYY     -18.1823    XXZ       4.1830    XYZ      -0.8888
       YYZ       4.0183    XZZ     -15.6921    YZZ      -3.7178
       ZZZ       2.2519
    Hexadecapole Moments (Debye-Ang^3)
      XXXX   -9435.2453   XXXY      50.4283   XXYY   -3048.9832
      XYYY      73.6779   YYYY   -8817.7747   XXXZ     -27.4813
      XXYZ       2.0067   XYYZ      -4.5398   YYYZ      -7.7154
      XXZZ   -2972.9689   XYZZ      11.0447   YYZZ   -2876.0310
      XZZZ     -19.1106   YZZZ      -0.5235   ZZZZ   -8451.8829
 -----------------------------------------------------------------
 Calculating analytic gradient of the SCF energy
 Gradient of SCF Energy
            1           2           3           4           5           6
    1   0.0362280   0.0012754  -0.0430365  -0.0131955   0.0275310   0.0332467
    2  -0.0011588  -0.0313836  -0.0048019   0.0361899   0.0372705  -0.0274564
    3   0.0045740   0.0149493   0.0053397  -0.0155825  -0.0144292   0.0131444
            7           8           9          10          11          12
    1   0.0118698   0.0052459  -0.0427309   0.0016059  -0.0219328   0.0365937
    2   0.0223567   0.0117565  -0.0520187  -0.0221996   0.0344349   0.0157235
    3  -0.0028305  -0.0019621  -0.0319476   0.0256812   0.0071102  -0.0011969
           13          14          15          16          17          18
    1  -0.0214300   0.0104086   0.0195056   0.0287765   0.0178445  -0.0115782
    2  -0.0115387  -0.0553113   0.0608298   0.0211735  -0.0328071  -0.0317161
    3   0.0257661  -0.0014310  -0.0229264   0.0301413   0.0216512  -0.0176934
           19          20          21          22          23          24
    1  -0.0226043  -0.0175675   0.0158415  -0.0279361   0.0062895  -0.0132515
    2   0.0133144   0.0003539   0.0242529  -0.0123096   0.0105657   0.0358037
    3  -0.0358582   0.0292584  -0.0084133   0.0060550  -0.0298729   0.0225765
           25          26          27          28          29          30
    1   0.0277638   0.0022220  -0.0045833  -0.0078430  -0.0383629  -0.0307422
    2   0.0319686  -0.0188890  -0.0332087   0.0222184   0.0191390   0.0056920
    3   0.0228312  -0.0312983  -0.0051050   0.0202908   0.0369515  -0.0175151
           31          32          33          34          35          36
    1  -0.0241365  -0.0047469   0.0347311   0.0185781  -0.0126605   0.0000594
    2   0.0000935   0.0381270  -0.0032020  -0.0162533  -0.0117580   0.0305854
    3  -0.0293909   0.0115818   0.0159502   0.0245233  -0.0261170   0.0108176
           37          38          39          40          41          42
    1   0.0321908   0.0012264  -0.0704698   0.0547771   0.0222451  -0.0116077
    2  -0.0260911  -0.0277524  -0.0154731  -0.0057823   0.0053544  -0.0318517
    3  -0.0230723  -0.0270221   0.0063663   0.0208618  -0.0219499   0.0070792
           43          44          45          46          47          48
    1  -0.0208266  -0.0166850   0.0098793   0.0352224   0.0099880  -0.0264257
    2   0.0297334   0.0221419  -0.0072196  -0.0266313  -0.0012551  -0.0218163
    3  -0.0216542   0.0277425   0.0374357  -0.0062552  -0.0353609   0.0183801
           49          50          51          52          53          54
    1  -0.0360661   0.0076425   0.0381776   0.0138033  -0.0089165  -0.0384097
    2   0.0246152   0.0274976   0.0099380  -0.0386212   0.0056801  -0.0094341
    3  -0.0030216  -0.0152850  -0.0119507   0.0173671  -0.0353541   0.0020876
           55          56          57          58          59          60
    1   0.0214444   0.0129011  -0.0256990  -0.0363160   0.0140021   0.0367578
    2   0.0106105  -0.0318385  -0.0208645   0.0231506   0.0232481   0.0032161
    3   0.0250770  -0.0229833  -0.0251718   0.0060010   0.0191537   0.0104150
           61
    1   0.0038857
    2  -0.0263918
    3  -0.0045093
 Max gradient component =       7.047E-02
 RMS gradient           =       2.404E-02
 Gradient time:  CPU 9220.33 s  wall 1542.92 s
 Geometry Optimization Parameters
   NAtoms,    NIC,     NZ,  NCons,   NDum,   NFix, NCnnct, MaxDiis
       61     955       0       0       0       0       0       0

 Cartesian Hessian Update
 Hessian updated using BFGS update


** GEOMETRY OPTIMIZATION IN DELOCALIZED INTERNAL COORDINATES **
   Searching for a Minimum

   Optimization Cycle:   2

                       Coordinates (Angstroms)
     ATOM                X               Y               Z
      1  Fe       -1.7934495207   -0.4250594199    0.0762813589
      2  C        -0.1181727910   -0.2294089030   -3.4171742467
      3  C         0.8547720392   -1.2148856164   -3.1593115508
      4  C         0.2025622844   -2.3114825442   -2.5637674589
      5  C        -1.1751869582   -2.0045630349   -2.4626898721
      6  C        -1.3550473211   -0.7091531238   -2.9764096304
      7  C        -2.3106791547    0.1619079681   -2.4358081025
      8  C        -3.1863078494   -0.2651831058   -1.3220939224
      9  C        -3.1826880414   -1.7330859609   -0.9034151626
     10  C        -1.9809583565   -2.4801107522   -1.4113997361
     11  C        -1.2845181098   -3.1082325169   -0.3511965227
     12  C         0.1003993128   -3.3905964063   -0.4382645500
     13  C         0.8484572292   -3.0781599395   -1.5835157004
     14  C         2.2388931953   -2.7938117256   -1.1850893098
     15  C         2.8300252481   -1.5791434220   -1.7539181999
     16  C         2.1456610844   -0.8365573747   -2.7479273200
     17  C         2.4430420217    0.5364917467   -2.5887813140
     18  C         3.2615857438    0.6632125899   -1.4535851025
     19  C         3.4572422893   -0.6293018535   -0.9169234290
     20  C         3.5047783282   -0.8118445951    0.4820968883
     21  C         2.9254444961   -1.9481460347    1.0982125305
     22  C         2.2227030361   -2.8738723260    0.2891555079
     23  C         0.9248137861   -3.2694504090    0.6909447021
     24  C         0.3569997406   -2.8258825844    1.8909147164
     25  C        -1.0198931284   -2.5333621858    1.9556404147
     26  C        -1.8849238500   -2.7576046332    0.8700810008
     27  C        -3.0353163386   -1.8409020502    0.5877470379
     28  C        -3.1644186482   -0.5929429536    1.4799967894
     29  C        -3.4469554501    0.7968980211    0.9746395270
     30  C        -3.5003746050    0.9657001957   -0.5053947503
     31  C        -2.7352383615    2.0830688697   -1.1300817905
     32  C        -1.9888343078    3.0526364906   -0.3039103228
     33  C        -1.8372410412    2.7491553344    1.1178626026
     34  C        -2.4966280917    1.6535868627    1.7116418930
     35  C        -1.8079904430    0.8910088034    2.6841630839
     36  C        -2.1774149890   -0.4598728145    2.5908965018
     37  C        -1.1686675956   -1.4206781110    2.8073564323
     38  C         0.1158351582   -1.0642606739    3.2624913285
     39  C         1.0655524111   -1.9737525692    2.7549195561
     40  C         2.4282956525   -1.5478936826    2.4322994043
     41  C         2.6789070630   -0.0955337286    2.5103415967
     42  C         3.3615588873    0.3067605872    1.3391601277
     43  C         3.1654926631    1.5948286739    0.7895864524
     44  C         3.1201057536    1.7759739861   -0.6053618381
     45  C         2.1524300631    2.7701108234   -0.8896947588
     46  C         1.5973271116    3.1970907617    0.3296984278
     47  C         2.2331823492    2.4793459028    1.3690147938
     48  C         1.4935110052    2.0637419206    2.4822410974
     49  C         1.7015829045    0.7791932290    3.0370975658
     50  C         0.4390863871    0.2877707926    3.4286238322
     51  C        -0.5246405079    1.2593687841    3.1201263373
     52  C         0.1186450263    2.3566998382    2.5451039675
     53  C        -0.5212279323    3.0735828516    1.5221699482
     54  C         0.2182797712    3.5033630513    0.4069680397
     55  C        -0.6231640874    3.4444011853   -0.7299904953
     56  C        -0.0573687544    2.9474704173   -1.9188438885
     57  C         1.3223697652    2.6385451196   -2.0145630284
     58  C         1.4698691772    1.5199622344   -2.8616104554
     59  C         0.1862726868    1.1302636543   -3.2727068406
     60  C        -0.7522240328    1.9978135055   -2.6873942380
     61  C        -2.0196153364    1.5283175693   -2.2909340894
   Point Group: c1    Number of degrees of freedom:   177


   Energy is  -3548.792499314

 Hessian updated using BFGS update

177 Hessian modes will be used to form the next step
  Hessian Eigenvalues:
     0.026185    0.026533    0.027358    0.028283    0.028577    0.028792
     0.029025    0.029115    0.029172    0.029668    0.030103    0.030280
     0.030803    0.031007    0.031159    0.031245    0.031376    0.031861
     0.031921    0.032210    0.032446    0.032640    0.032811    0.033116
     0.033350    0.033945    0.034305    0.034845    0.035075    0.035827
     0.036232    0.037061    0.038356    0.039106    0.039396    0.040118
     0.040313    0.041191    0.042284    0.043401    0.043957    0.045558
     0.046704    0.047759    0.051530    0.052038    0.053379    0.055643
     0.057547    0.059561    0.063865    0.067253    0.069939    0.070836
     0.076961    0.078186    0.081771    0.084964    0.088793    0.099940
     0.105820    0.115431    0.116335    0.117181    0.118049    0.120669
     0.122481    0.124657    0.125989    0.128813    0.129363    0.130350
     0.131154    0.132530    0.132702    0.133984    0.134839    0.137316
     0.137659    0.138901    0.139300    0.141450    0.143080    0.144502
     0.145361    0.148621    0.150917    0.154413    0.155750    0.170080
     0.173936    0.181280    0.191677    0.192885    0.202229    0.205666
     0.216048    0.217737    0.224832    0.229492    0.235773    0.237170
     0.238904    0.240206    0.241979    0.245712    0.246805    0.253556
     0.256914    0.257158    0.261404    0.264117    0.269644    0.273436
     0.274631    0.278351    0.280934    0.282733    0.287033    0.315582
     0.317288    0.326427    0.328226    0.335313    0.337643    0.342014
     0.349418    0.354911    0.358708    0.362464    0.371383    0.373760
     0.381908    0.384952    0.387474    0.393128    0.395037    0.399829
     0.403486    0.404946    0.408245    0.410325    0.411558    0.413123
     0.415092    0.417977    0.418776    0.419807    0.422568    0.423010
     0.426222    0.427252    0.428657    0.430357    0.432619    0.435500
     0.437410    0.440044    0.440946    0.444662    0.447054    0.448502
     0.449876    0.451932    0.453010    0.455075    0.455983    0.457905
     0.460089    0.460210    0.460999    0.461279    0.462814    0.467054
     0.470957    0.472832    0.508128

 Minimum search - taking simple RFO step
 Searching for Lamda that Minimizes Along All modes
 Value Taken    Lamda =  -0.11524910
 Calculated Step too Large.  Step scaled by  0.472936
 Step Taken.  Stepsize is  0.300000

                             Maximum     Tolerance    Cnvgd?
         Gradient           0.138042      0.000300      NO
         Displacement       0.152092      0.001200      NO
         Energy change     -0.068753      0.000001      NO


 New Cartesian Coordinates Obtained by Inverse Iteration

 Displacement from previous Coordinates is:  0.279082
 ----------------------------------------------------------------
             Standard Nuclear Orientation (Angstroms)
    I     Atom           X                Y                Z
 ----------------------------------------------------------------
    1      Fe     -1.7723485027    -0.4276387763     0.0788572521
    2      C      -0.1264743846    -0.2248148083    -3.4441216307
    3      C       0.8553304973    -1.2200009356    -3.1796287088
    4      C       0.2016025239    -2.3268697274    -2.5755248983
    5      C      -1.1856672197    -2.0165868475    -2.4732511994
    6      C      -1.3690183974    -0.7084914699    -2.9948815462
    7      C      -2.3122556577     0.1580360749    -2.4384791689
    8      C      -3.1640468772    -0.2646719316    -1.3147770475
    9      C      -3.1576599051    -1.7111712634    -0.8910898042
   10      C      -1.9761287961    -2.4774597385    -1.4156229069
   11      C      -1.2831050366    -3.1233162399    -0.3525422508
   12      C       0.0905944668    -3.4095726761    -0.4406790934
   13      C       0.8455652361    -3.0824032725    -1.5920365712
   14      C       2.2267755573    -2.7784500031    -1.1837482909
   15      C       2.8137986663    -1.5899483854    -1.7486993353
   16      C       2.1354597423    -0.8437394384    -2.7634534448
   17      C       2.4405856015     0.5418826999    -2.6035151925
   18      C       3.2642061065     0.6684471690    -1.4560825403
   19      C       3.4553356151    -0.6335189709    -0.9109784283
   20      C       3.4996587783    -0.8095051746     0.4790688277
   21      C       2.9081231363    -1.9479437866     1.0959731779
   22      C       2.2157630034    -2.8699624764     0.2888606467
   23      C       0.9175548614    -3.2846893466     0.6962672459
   24      C       0.3572072656    -2.8461391836     1.8944788476
   25      C      -1.0278764507    -2.5492386481     1.9633615216
   26      C      -1.8829485986    -2.7600901768     0.8781288776
   27      C      -3.0179744524    -1.8270299238     0.5907518348
   28      C      -3.1444241585    -0.5987000414     1.4714806762
   29      C      -3.4150489190     0.7873153271     0.9607369512
   30      C      -3.4648824946     0.9569614664    -0.4977942837
   31      C      -2.7113220434     2.0726217176    -1.1188462213
   32      C      -1.9805185878     3.0329827622    -0.3061277143
   33      C      -1.8418288236     2.7473308009     1.1127164530
   34      C      -2.4929302158     1.6518111474     1.7037664397
   35      C      -1.8115347300     0.8924133639     2.6974166015
   36      C      -2.1770649797    -0.4690349952     2.5957549804
   37      C      -1.1787644998    -1.4261312269     2.8253121935
   38      C       0.1108301416    -1.0628289284     3.2848318602
   39      C       1.0708859794    -1.9736356954     2.7570251446
   40      C       2.4025079836    -1.5442398880     2.4247291918
   41      C       2.6646715480    -0.0939557171     2.5161604265
   42      C       3.3590108688     0.3144845179     1.3414563162
   43      C       3.1711977479     1.5964037212     0.7969010865
   44      C       3.1271869237     1.7771236181    -0.6112827293
   45      C       2.1539764931     2.7810050398    -0.8987862515
   46      C       1.5940118120     3.2136606485     0.3322751770
   47      C       2.2335156108     2.4903837803     1.3819353371
   48      C       1.4972292532     2.0780493806     2.4935692766
   49      C       1.7019899026     0.7791636442     3.0514955258
   50      C       0.4308157810     0.2864863945     3.4522911520
   51      C      -0.5388809935     1.2658865859     3.1426563169
   52      C       0.1106428444     2.3747596049     2.5593496169
   53      C      -0.5227705796     3.0828407460     1.5341661256
   54      C       0.2226926411     3.5134507688     0.4100016629
   55      C      -0.6257610164     3.4422496171    -0.7353682884
   56      C      -0.0625244015     2.9583392159    -1.9223002818
   57      C       1.3287280111     2.6511129096    -2.0198865330
   58      C       1.4754596675     1.5229455491    -2.8781776243
   59      C       0.1790221480     1.1320260562    -3.2968015312
   60      C      -0.7626981648     2.0037100365    -2.7004102847
   61      C      -2.0189394618     1.5314320483    -2.2911671061
 ----------------------------------------------------------------
 Molecular Point Group                 C1    NOp =  1
 Largest Abelian Subgroup              C1    NOp =  1
 Nuclear Repulsion Energy =        9744.51377178 hartrees
 There are      193 alpha and      193 beta electrons
 Applying Cartesian multipole field
    Component          Value
    ---------          -----
     (2,0,0)        1.00000E-11
     (0,2,0)        2.00000E-11
     (0,0,2)       -3.00000E-11
 Nucleus-field energy     =     0.0000000098 hartrees
 Requested basis set is 6-31++G(d,p)
 There are 308 shells and 1176 basis functions
 A cutoff of  1.0D-11 yielded  34911 shell pairs
 There are    545392 function pairs (    548143 Cartesian)
 Smallest overlap matrix eigenvalue = 1.61E-09

 Q-Chem warning in module stvman/mkSTV.C, line 318:

 Overlap eigenvalue is smaller than square root of threshold
 Use THRESH >= 12 to get rid of this warning

 Linear dependence detected in AO basis
 Tighter screening thresholds may be required for diffuse basis sets
 Use S2THRESH > 14 and THRESH = 14 in case of SCF convergence issues
 Number of orthogonalized atomic orbitals = 1118
 Maximum deviation from orthogonality = 2.818E-10
 Guess MOs from SCF MO coefficient file

 -----------------------------------------------------------------------
  General SCF calculation program by
  Eric Jon Sundstrom, Paul Horn, Yuezhi Mao, Dmitri Zuev, Alec White,
  David Stuck, Shaama M.S., Shane Yost, Joonho Lee, David Small,
  Daniel Levine, Susi Lehtola, Hugh Burton, Evgeny Epifanovsky,
  Bang C. Huynh
 -----------------------------------------------------------------------
 Exchange:     0.2220 Hartree-Fock + 1.0000 wB97X-D + LR-HF
 Correlation:  1.0000 wB97X-D
 Using SG-2 standard quadrature grid
 Dispersion:   Grimme D
 using 8 threads for integral computing
 -------------------------------------------------------
 OpenMP Integral computing Module                
 Release: version 1.0, May 2013, Q-Chem Inc. Pittsburgh 
 -------------------------------------------------------
 using 8 threads for integral computing
 -------------------------------------------------------
 OpenMP Integral computing Module                
 Release: version 1.0, May 2013, Q-Chem Inc. Pittsburgh 
 -------------------------------------------------------
 A restricted SCF calculation will be
 performed using DIIS
 SCF converges when DIIS error is below 1.0e-08
 ---------------------------------------
  Cycle       Energy         DIIS error
 ---------------------------------------
    1   -3548.8300555767      2.57e-04  
    2   -3548.8381214033      8.31e-05  
    3   -3548.8363261012      1.70e-04  
    4   -3548.8381736829      1.29e-04  
    5   -3548.8395188300      1.09e-05  
    6   -3548.8395571553      6.78e-06  
    7   -3548.8395695105      2.45e-06  
    8   -3548.8395739028      1.28e-06  
    9   -3548.8395766960      1.13e-06  
   10   -3548.8395786196      7.67e-07  
   11   -3548.8395804032      6.63e-07  
   12   -3548.8395822779      5.07e-07  
   13   -3548.8395836733      4.12e-07  
   14   -3548.8395847731      3.26e-07  
   15   -3548.8395854549      2.47e-07  
   16   -3548.8395857827      1.90e-07  
   17   -3548.8395859773      1.76e-07  
   18   -3548.8395860907      1.34e-07  
   19   -3548.8395861767      1.15e-07  
[...]
     56  C        -0.0777907963    2.9889816295   -1.9416836454
     57  C         1.3290685413    2.6663223402   -2.0267330061
     58  C         1.4779233585    1.5195723592   -2.9067279585
     59  C         0.1601154182    1.1291146445   -3.3592621315
     60  C        -0.7913544044    2.0289913604   -2.7628113165
     61  C        -2.0243465320    1.5435489458   -2.3340329012

Z-matrix Print:
$molecule
0 1
Fe
C  1 1.960765
C  2 1.439343 1 69.599871
C  3 1.441974 2 119.105683 1 47.290937 0
C  4 1.439739 3 119.202293 2 0.033087 0
C  2 1.469270 1 99.142867 3 -115.898214 0
C  6 1.393503 2 120.964591 1 74.309651 0
C  7 1.435385 6 119.267373 2 -139.651571 0
C  8 1.397835 7 120.285020 6 -0.564647 0
C  9 1.439037 8 120.271272 7 0.327665 0
C  10 1.392758 9 119.668696 8 0.456160 0
C  9 1.447018 8 120.036375 7 138.383232 0
C  12 1.386853 9 120.096265 8 0.024316 0
C  13 1.447025 12 120.127667 9 -138.369699 0
C  14 1.388645 13 119.880554 12 0.092453 0
C  15 1.448194 14 120.153878 13 -0.361909 0
C  16 1.387282 15 119.986939 14 0.625789 0
C  17 1.445889 16 120.436825 15 138.338244 0
C  18 1.391326 17 120.170667 16 -0.901157 0
C  16 1.449261 15 108.028159 14 142.428499 0
C  20 1.387994 16 120.158950 15 -142.544828 0
C  20 1.449044 16 107.951938 15 0.547377 0
C  22 1.387356 20 119.478381 16 -142.569648 0
C  23 1.445822 22 120.443994 20 -0.890616 0
C  24 1.391444 23 120.184702 22 1.048910 0
C  22 1.448093 20 108.031862 16 -0.539247 0
C  26 1.388951 22 120.140649 20 -142.461237 0
C  27 1.446816 26 119.855148 22 0.411333 0
C  28 1.387041 27 120.168098 26 -0.123014 0
C  29 1.447103 28 120.142566 27 138.406448 0
C  30 1.397782 29 119.982237 28 -0.164193 0
C  31 1.435291 30 120.339884 29 -138.386621 0
C  32 1.393355 31 119.231808 30 0.638307 0
C  30 1.439212 29 107.668616 28 -142.752748 0
C  34 1.392759 30 119.610745 29 142.073072 0
C  14 1.449508 13 108.032249 12 142.613030 0
C  36 1.387344 14 120.033916 13 -142.418753 0
C  36 1.448396 14 108.131361 13 0.230589 0
C  38 1.387109 36 120.287474 14 -143.222813 0
C  37 1.448637 36 119.857657 14 138.262213 0
C  40 1.386941 37 120.299739 36 0.537190 0
C  41 1.449006 40 120.040219 37 -138.496607 0
C  42 1.390999 41 119.837756 40 0.177110 0
C  43 1.445708 42 120.364282 41 138.686738 0
C  44 1.383531 43 119.260069 42 -0.852638 0
C  42 1.447859 41 107.888772 40 142.522724 0
C  46 1.392066 42 120.092532 41 -143.405832 0
C  46 1.447739 42 108.202256 41 -0.203114 0
C  48 1.391157 46 119.998561 42 -142.086639 0
C  49 1.445504 48 120.400434 46 -0.790437 0
C  50 1.383510 49 119.285834 48 0.704051 0
C  19 1.449907 18 121.713379 17 -139.771478 0
C  52 1.408729 19 117.822584 18 3.930892 0
C  52 1.442097 19 108.035745 18 143.005791 0
C  54 1.409199 52 119.356568 19 -138.174128 0
C  43 1.450114 42 120.069551 41 -0.062459 0
C  56 1.385151 43 119.942324 42 -0.119539 0
C  49 1.450295 48 120.056828 46 137.921027 0
C  58 1.385282 49 119.912692 48 0.050978 0
C  55 1.451457 54 121.832746 52 -5.249356 0
C  60 1.434508 55 118.608055 54 5.194526 0
$end


 --------------------------------------------------------------

                    Orbital Energies (a.u.)
 --------------------------------------------------------------

 Alpha MOs
 -- Occupied --
******** -30.1916 -26.0481 -26.0400 -26.0227 -10.3870 -10.3866 -10.3835
-10.3830 -10.3827 -10.3826 -10.3742 -10.3742 -10.3688 -10.3687 -10.3653
-10.3653 -10.3640 -10.3639 -10.3638 -10.3632 -10.3632 -10.3628 -10.3627
-10.3619 -10.3607 -10.3607 -10.3604 -10.3603 -10.3598 -10.3597 -10.3590
-10.3589 -10.3588 -10.3588 -10.3587 -10.3586 -10.3581 -10.3579 -10.3578
-10.3578 -10.3577 -10.3577 -10.3575 -10.3574 -10.3572 -10.3571 -10.3571
-10.3571 -10.3571 -10.3569 -10.3568 -10.3563 -10.3563 -10.3560 -10.3560
-10.3560 -10.3559 -10.3545 -10.3544 -10.3532 -10.3516 -10.3515 -10.3469
-10.3464  -3.5543  -2.3388  -2.3289  -2.2962  -1.0993  -1.0789  -1.0741
 -1.0726  -1.0389  -1.0388  -1.0383  -1.0333  -1.0322  -0.9967  -0.9967
 -0.9918  -0.9654  -0.9630  -0.9625  -0.9586  -0.9124  -0.9114  -0.9101
 -0.9095  -0.9094  -0.8935  -0.8927  -0.8913  -0.8907  -0.8375  -0.8359
 -0.8325  -0.8323  -0.8312  -0.8210  -0.8193  -0.8177  -0.7761  -0.7755
 -0.7744  -0.7383  -0.7382  -0.7374  -0.7349  -0.7333  -0.7327  -0.7321
 -0.7317  -0.7065  -0.6667  -0.6648  -0.6641  -0.6637  -0.6389  -0.6380
 -0.6375  -0.6374  -0.6348  -0.6209  -0.6202  -0.6198  -0.6023  -0.5959
 -0.5944  -0.5933  -0.5753  -0.5712  -0.5706  -0.5694  -0.5692  -0.5680
 -0.5661  -0.5479  -0.5471  -0.5464  -0.5448  -0.5441  -0.5328  -0.5323
 -0.5319  -0.5302  -0.5282  -0.5276  -0.5251  -0.5214  -0.5213  -0.5208
 -0.5205  -0.5190  -0.4995  -0.4995  -0.4992  -0.4975  -0.4731  -0.4711
 -0.4606  -0.4606  -0.4585  -0.4558  -0.4546  -0.4542  -0.4522  -0.4500
 -0.4443  -0.4436  -0.4423  -0.4413  -0.4407  -0.4403  -0.4385  -0.3972
 -0.3905  -0.3852  -0.3792  -0.3678  -0.3653  -0.3592  -0.3575  -0.3567
 -0.3389  -0.3208  -0.3148  -0.3114  -0.3093  -0.3018  -0.2877  -0.2873
 -0.2498
 -- Virtual --
 -0.0816  -0.0744  -0.0645  -0.0441  -0.0386  -0.0238  -0.0161  -0.0095
  0.0122   0.0142   0.0162   0.0195   0.0196   0.0201   0.0214   0.0280
  0.0600   0.0625   0.0626   0.0766   0.0784   0.0850   0.0857   0.0891
  0.0917   0.0922   0.0939   0.0940   0.0963   0.0967   0.1040   0.1064
  0.1066   0.1068   0.1085   0.1086   0.1093   0.1096   0.1099   0.1102
  0.1106   0.1260   0.1269   0.1272   0.1275   0.1277   0.1278   0.1281
  0.1288   0.1293   0.1319   0.1372   0.1403   0.1408   0.1493   0.1502
  0.1502   0.1504   0.1510   0.1514   0.1532   0.1537   0.1538   0.1540
  0.1544   0.1556   0.1589   0.1595   0.1614   0.1635   0.1648   0.1809
  0.1816   0.1817   0.1819   0.1823   0.1841   0.1842   0.1844   0.1846
  0.1848   0.1857   0.1860   0.1877   0.1917   0.1925   0.2072   0.2097
  0.2120   0.2122   0.2129   0.2145   0.2263   0.2269   0.2275   0.2276
  0.2277   0.2282   0.2283   0.2289   0.2292   0.2357   0.2377   0.2405
  0.2436   0.2456   0.2462   0.2501   0.2516   0.2532   0.2537   0.2538
  0.2551   0.2561   0.2580   0.2587   0.2665   0.2679   0.2693   0.2695
  0.2721   0.2727   0.2767   0.2794   0.2795   0.2853   0.2855   0.2893
  0.2898   0.2933   0.2948   0.2966   0.3092   0.3094   0.3101   0.3104
  0.3106   0.3130   0.3139   0.3151   0.3159   0.3195   0.3204   0.3214
  0.3222   0.3225   0.3226   0.3237   0.3238   0.3242   0.3253   0.3256
  0.3259   0.3276   0.3279   0.3280   0.3286   0.3289   0.3314   0.3319
  0.3321   0.3336   0.3338   0.3426   0.3428   0.3438   0.3444   0.3451
  0.3458   0.3479   0.3488   0.3489   0.3499   0.3499   0.3502   0.3505
  0.3507   0.3513   0.3516   0.3520   0.3571   0.3580   0.3581   0.3582
  0.3591   0.3608   0.3611   0.3612   0.3652   0.3661   0.3663   0.3670
  0.3685   0.3688   0.3691   0.3693   0.3695   0.3699   0.3703   0.3711
  0.3739   0.3748   0.3767   0.3880   0.3884   0.3892   0.3923   0.3956
  0.3967   0.3976   0.3977   0.3980   0.3986   0.3988   0.4005   0.4021
  0.4060   0.4103   0.4104   0.4108   0.4120   0.4126   0.4131   0.4132
  0.4133   0.4139   0.4152   0.4154   0.4156   0.4159   0.4162   0.4163
  0.4165   0.4171   0.4248   0.4251   0.4256   0.4258   0.4263   0.4272
  0.4277   0.4292   0.4318   0.4331   0.4333   0.4346   0.4347   0.4404
  0.4423   0.4432   0.4440   0.4445   0.4460   0.4600   0.4601   0.4604
  0.4611   0.4613   0.4625   0.4629   0.4629   0.4644   0.4645   0.5107
  0.5121   0.5144   0.5225   0.5405   0.5424   0.5433   0.5449   0.5478
  0.5526   0.5534   0.5563   0.5619   0.5726   0.5730   0.5743   0.5875
  0.5887   0.5893   0.5963   0.6006   0.6026   0.6093   0.6251   0.6258
  0.6281   0.6288   0.6299   0.6313   0.6385   0.6440   0.6453   0.6505
  0.6525   0.6551   0.6575   0.6607   0.6832   0.6848   0.7081   0.7087
  0.7094   0.7142   0.7174   0.7191   0.7297   0.7317   0.7326   0.7383
  0.7416   0.7432   0.7473   0.7500   0.7529   0.7531   0.7556   0.7581
  0.7747   0.7756   0.7789   0.7791   0.7793   0.7817   0.7840   0.7844
  0.7917   0.7961   0.7968   0.8133   0.8151   0.8182   0.8184   0.8195
  0.8299   0.8333   0.8339   0.8620   0.8633   0.8633   0.8645   0.8678
  0.8792   0.8813   0.8824   0.8837   0.8873   0.8877   0.8889   0.8911
  0.8912   0.8991   0.8994   0.9044   0.9052   0.9062   0.9068   0.9133
  0.9134   0.9162   0.9179   0.9202   0.9218   0.9237   0.9242   0.9259
  0.9293   0.9311   0.9313   0.9334   0.9335   0.9345   0.9381   0.9390
  0.9402   0.9427   0.9456   0.9460   0.9473   0.9488   0.9496   0.9498
  0.9510   0.9536   0.9581   0.9584   0.9707   0.9727   0.9743   0.9748
  0.9751   0.9778   0.9782   0.9788   0.9850   0.9901   0.9906   0.9951
  0.9952   1.0053   1.0109   1.0117   1.0123   1.0205   1.0231   1.0255
  1.0272   1.0290   1.0315   1.0331   1.0333   1.0346   1.0380   1.0386
  1.0397   1.0530   1.0532   1.0546   1.0560   1.0580   1.0756   1.0757
  1.0761   1.0791   1.0791   1.0821   1.1175   1.1232   1.1251   1.1266
  1.1289   1.1310   1.1366   1.1430   1.1521   1.1533   1.1561   1.1568
  1.1572   1.1607   1.1630   1.1643   1.1685   1.1768   1.1774   1.1783
  1.1790   1.1803   1.1814   1.1820   1.2008   1.2015   1.2075   1.2076
  1.2079   1.2159   1.2182   1.2202   1.2206   1.2223   1.2228   1.2248
  1.2274   1.2297   1.2321   1.2357   1.2455   1.2480   1.2522   1.2543
  1.2556   1.2561   1.2575   1.2600   1.2651   1.2663   1.2712   1.2720
  1.2731   1.2742   1.2757   1.2763   1.2802   1.2821   1.2868   1.2880
  1.2964   1.2989   1.2996   1.3046   1.3072   1.3090   1.3091   1.3138
  1.3157   1.3170   1.3193   1.3198   1.3206   1.3227   1.3241   1.3248
  1.3299   1.3304   1.3312   1.3323   1.3349   1.3399   1.3413   1.3430
  1.3761   1.3841   1.3933   1.3982   1.4002   1.4083   1.4197   1.4236
  1.4302   1.4304   1.4477   1.4486   1.4505   1.4552   1.4562   1.4574
  1.4681   1.4700   1.4749   1.5014   1.5038   1.5097   1.5134   1.5135
  1.5188   1.5218   1.5271   1.5293   1.5590   1.5639   1.5652   1.5701
  1.5715   1.5778   1.5793   1.5832   1.5875   1.5893   1.5967   1.6031
  1.6125   1.6155   1.6200   1.6210   1.6240   1.6287   1.6678   1.6691
  1.6833   1.6834   1.6884   1.6955   1.7074   1.7245   1.7260   1.7329
  1.7366   1.7411   1.7545   1.7628   1.7687   1.7737   1.7780   1.7842
  1.7844   1.7877   1.7915   1.7976   1.7985   1.8004   1.8045   1.8069
  1.8080   1.8133   1.8187   1.8207   1.8243   1.8343   1.8349   1.8370
  1.8384   1.8405   1.8437   1.8481   1.8483   1.8492   1.8552   1.8573
  1.8609   1.8624   1.8743   1.8871   1.8941   1.8972   1.8992   1.9024
  1.9066   1.9094   1.9143   1.9162   1.9223   1.9439   1.9482   1.9608
  1.9645   1.9673   1.9703   1.9851   1.9865   1.9886   1.9998   2.0100
  2.0179   2.0219   2.0294   2.0478   2.0512   2.0548   2.0593   2.0623
  2.0629   2.0653   2.0665   2.0691   2.0714   2.0716   2.0722   2.0729
  2.0757   2.0761   2.0787   2.0799   2.0830   2.0847   2.1003   2.1023
  2.1036   2.1100   2.1171   2.1253   2.1337   2.1352   2.1381   2.1392
  2.1454   2.1476   2.1604   2.1684   2.1684   2.1727   2.1748   2.1834
  2.1838   2.1872   2.1880   2.1950   2.1973   2.2004   2.2059   2.2116
  2.2121   2.2146   2.2157   2.2213   2.2254   2.2275   2.2293   2.2345
  2.2585   2.2616   2.2861   2.2946   2.2949   2.3009   2.3056   2.3081
  2.3129   2.3209   2.3312   2.3327   2.3365   2.3454   2.3493   2.3554
  2.3556   2.3595   2.3608   2.3658   2.3660   2.3681   2.3786   2.3812
  2.3842   2.3904   2.3905   2.4001   2.4041   2.4047   2.4164   2.4393
  2.4395   2.4453   2.4472   2.4553   2.4580   2.4612   2.4650   2.4697
  2.4742   2.5046   2.5112   2.5169   2.5257   2.5274   2.5359   2.5372
  2.5524   2.5542   2.5587   2.5597   2.5610   2.5623   2.5697   2.5724
  2.5727   2.5823   2.5837   2.5981   2.6059   2.6073   2.6229   2.6350
  2.6364   2.6403   2.6486   2.6490   2.6589   2.6632   2.6636   2.6716
  2.6733   2.6767   2.6798   2.6821   2.6845   2.6878   2.6909   2.7039
  2.7118   2.7159   2.7237   2.7261   2.7317   2.7355   2.7390   2.7433
  2.7463   2.7472   2.7483   2.7523   2.7541   2.7635   2.7683   2.7693
  2.7807   2.7835   2.7888   2.7912   2.7955   2.7988   2.8010   2.8126
  2.8349   2.8381   2.8399   2.8628   2.8666   2.8776   2.8802   2.8861
  2.8875   2.8985   2.9041   2.9059   2.9103   2.9189   2.9206   2.9229
  2.9268   2.9289   2.9319   2.9354   2.9360   2.9397   2.9481   2.9494
  2.9521   2.9559   2.9562   2.9658   2.9727   2.9859   2.9986   3.0064
  3.0072   3.0098   3.0115   3.0225   3.0239   3.0251   3.0347   3.0413
  3.0636   3.0712   3.0752   3.0823   3.0861   3.0873   3.0880   3.1178
  3.1545   3.1549   3.1582   3.1797   3.1899   3.1913   3.2040   3.2101
  3.2376   3.2853   3.3056   3.3131   3.3133   3.3193   3.3340   3.3368
  3.3390   3.3492   3.3494   3.3768   3.3808   3.5177   3.5310   3.5485
  3.5507   3.5596   3.5608   3.5629   3.6954   3.7013   3.7316   3.7409
  4.4071   4.4076   4.4195   4.4423   4.4453   4.4462   4.4529   4.4553
  4.4567   4.4964   4.5019   4.5040   4.5116   4.5161   4.5176   4.5180
  4.5202   4.5212   4.5260   4.5265   4.5297   4.5300   4.5372   4.5377
  4.5419   4.5652   4.5697   4.6041   4.6071   4.6088   4.6175   4.6289
  4.6305   4.6769   4.6821   4.7180   4.7275   4.7576   4.7659   4.7844
  4.7888   4.7930   4.8571   4.8600   4.9415   4.9540   4.9584   5.0023
  5.0158   5.0418   5.0463   5.0763   5.0768   5.2702   5.2947   5.3254
  5.3259   5.4143   5.4800   5.4900  23.9337
 --------------------------------------------------------------

          Ground-State Mulliken Net Atomic Charges

     Atom                 Charge (a.u.)
  ----------------------------------------
      1 Fe                    0.240371
      2 C                    -0.022974
      3 C                    -0.021648
      4 C                    -0.009982
      5 C                     0.049387
      6 C                     0.056406
      7 C                     0.016720
      8 C                    -0.147077
      9 C                    -0.117013
     10 C                     0.109505
     11 C                    -0.040786
     12 C                     0.023626
     13 C                     0.050309
     14 C                     0.005143
     15 C                    -0.001574
     16 C                    -0.041112
     17 C                    -0.023142
     18 C                    -0.015485
     19 C                    -0.004184
     20 C                    -0.003604
     21 C                     0.003486
     22 C                     0.008765
     23 C                     0.054370
     24 C                    -0.014640
     25 C                     0.044175
     26 C                     0.110233
     27 C                    -0.115565
     28 C                    -0.151811
     29 C                    -0.097678
     30 C                    -0.101932
     31 C                    -0.001097
     32 C                     0.085312
     33 C                     0.078331
     34 C                    -0.005844
     35 C                    -0.048185
     36 C                     0.018313
     37 C                     0.051947
     38 C                    -0.034452
     39 C                    -0.018232
     40 C                    -0.037269
     41 C                    -0.020413
     42 C                    -0.013756
     43 C                    -0.007990
     44 C                    -0.003780
     45 C                     0.031093
     46 C                    -0.043962
     47 C                     0.034186
     48 C                    -0.027734
     49 C                    -0.012688
     50 C                     0.046288
     51 C                     0.027990
     52 C                     0.058423
     53 C                    -0.000023
     54 C                    -0.032127
     55 C                     0.000680
     56 C                     0.051128
     57 C                    -0.030134
     58 C                    -0.012083
     59 C                     0.035993
     60 C                     0.035980
     61 C                    -0.048187
  ----------------------------------------
  Sum of atomic charges =     0.000000

 -----------------------------------------------------------------
                    Cartesian Multipole Moments
 -----------------------------------------------------------------
    Charge (ESU x 10^10)
                -0.0000
    Dipole Moment (Debye)
         X      -0.7314      Y      -1.0823      Z      -0.1134
       Tot       1.3112
    Quadrupole Moments (Debye-Ang)
        XX    -348.5280     XY       2.7122     YY    -354.3998
        XZ       0.2305     YZ      -0.4561     ZZ    -351.7559
    Octopole Moments (Debye-Ang^2)
       XXX     -62.6837    XXY     -15.2500    XYY     -13.2948
       YYY     -28.8853    XXZ       0.1997    XYZ       0.8408
       YYZ       0.1281    XZZ     -17.7019    YZZ      -8.4965
       ZZZ       2.3092
    Hexadecapole Moments (Debye-Ang^3)
      XXXX   -9101.5090   XXXY      25.3480   XXYY   -3020.7811
      XYYY      30.0119   YYYY   -8998.9573   XXXZ       9.1928
      XXYZ      -6.8338   XYYZ       6.1594   YYYZ     -16.1824
      XXZZ   -2978.7730   XYZZ      -0.8744   YYZZ   -2964.0302
      XZZZ       4.1282   YZZZ     -11.8376   ZZZZ   -8805.2005
 -----------------------------------------------------------------
Archival summary:
1\1\node5.as.kent.edu\OPT\ProcedureUnspecified\BasisUnspecified\e160\eholder\SatOct2208:14:172022SatOct2208:14:172022\0\\#,OPT,ProcedureUnspecified,BasisUnspecified,\\0,1\Fe\C,1,1.96077\C,2,1.43934,1,69.5999\C,3,1.44197,2,119.106,1,47.2909,0\C,4,1.43974,3,119.202,2,0.0330866,0\C,2,1.46927,1,99.1429,3,-115.898,0\C,6,1.3935,2,120.965,1,74.3097,0\C,7,1.43538,6,119.267,2,-139.652,0\C,8,1.39784,7,120.285,6,-0.564647,0\C,9,1.43904,8,120.271,7,0.327665,0\C,10,1.39276,9,119.669,8,0.45616,0\C,9,1.44702,8,120.036,7,138.383,0\C,12,1.38685,9,120.096,8,0.0243164,0\C,13,1.44702,12,120.128,9,-138.37,0\C,14,1.38865,13,119.881,12,0.0924533,0\C,15,1.44819,14,120.154,13,-0.361909,0\C,16,1.38728,15,119.987,14,0.625789,0\C,17,1.44589,16,120.437,15,138.338,0\C,18,1.39133,17,120.171,16,-0.901157,0\C,16,1.44926,15,108.028,14,142.428,0\C,20,1.38799,16,120.159,15,-142.545,0\C,20,1.44904,16,107.952,15,0.547377,0\C,22,1.38736,20,119.478,16,-142.57,0\C,23,1.44582,22,120.444,20,-0.890616,0\C,24,1.39144,23,120.185,22,1.04891,0\C,22,1.44809,20,108.032,16,-0.539247,0\C,26,1.38895,22,120.141,20,-142.461,0\C,27,1.44682,26,119.855,22,0.411333,0\C,28,1.38704,27,120.168,26,-0.123014,0\C,29,1.4471,28,120.143,27,138.406,0\C,30,1.39778,29,119.982,28,-0.164193,0\C,31,1.43529,30,120.34,29,-138.387,0\C,32,1.39336,31,119.232,30,0.638307,0\C,30,1.43921,29,107.669,28,-142.753,0\C,34,1.39276,30,119.611,29,142.073,0\C,14,1.44951,13,108.032,12,142.613,0\C,36,1.38734,14,120.034,13,-142.419,0\C,36,1.4484,14,108.131,13,0.230589,0\C,38,1.38711,36,120.287,14,-143.223,0\C,37,1.44864,36,119.858,14,138.262,0\C,40,1.38694,37,120.3,36,0.53719,0\C,41,1.44901,40,120.04,37,-138.497,0\C,42,1.391,41,119.838,40,0.17711,0\C,43,1.44571,42,120.364,41,138.687,0\C,44,1.38353,43,119.26,42,-0.852638,0\C,42,1.44786,41,107.889,40,142.523,0\C,46,1.39207,42,120.093,41,-143.406,0\C,46,1.44774,42,108.202,41,-0.203114,0\C,48,1.39116,46,119.999,42,-142.087,0\C,49,1.4455,48,120.4,46,-0.790437,0\C,50,1.38351,49,119.286,48,0.704051,0\C,19,1.44991,18,121.713,17,-139.771,0\C,52,1.40873,19,117.823,18,3.93089,0\C,52,1.4421,19,108.036,18,143.006,0\C,54,1.4092,52,119.357,19,-138.174,0\C,43,1.45011,42,120.07,41,-0.0624585,0\C,56,1.38515,43,119.942,42,-0.119539,0\C,49,1.45029,48,120.057,46,137.921,0\C,58,1.38528,49,119.913,48,0.050978,0\C,55,1.45146,54,121.833,52,-5.24936,0\C,60,1.43451,55,118.608,54,5.19453,0\\\@

 Total job time:  322723.87s(wall), 2080780.76s(cpu) 
 Sat Oct 22 08:14:17 2022

        *************************************************************
        *                                                           *
        *  Thank you very much for using Q-Chem.  Have a nice day.  *
        *                                                           *
        *************************************************************


