 Entering Gaussian System, Link 0 = g09
-------------------------------------
#P wB97XD/6-311++G(d,p) freq formcheck
-------------------------------------


 Center     Atomic      Atomic             Coordinates (Angstroms)


       1          26          0        -1.776502    -0.204120     0.033151
       2         6          0        -0.152982    -0.224006    -3.517306
       3         6          0         0.850405    -1.234690    -3.226137
       4         6          0         0.188617    -2.372806    -2.617794
       5         6          0        -1.224044    -2.076369    -2.540360
       6         6          0        -1.428783    -0.726204    -3.092503
       7         6          0        -2.345449     0.147399    -2.510787
       8         6          0        -3.157010    -0.266033    -1.357879
       9         6          0        -2.924360    -1.581890    -0.822992
      10         6          0        -1.942953    -2.491338    -1.433530
      11         6          0        -1.304406    -3.236124    -0.359472
      12         6          0         0.057968    -3.509998    -0.441804
      13         6          0         0.816368    -3.080517    -1.597799
      14         6          0         2.132151    -2.677652    -1.143284
      15         6          0         2.764284    -1.589281    -1.726317
      16         6          0         2.109150    -0.853695    -2.790925
      17         6          0         2.432798     0.552773    -2.629462
      18         6          0         3.282898     0.684224    -1.465876
      19         6          0         3.484940    -0.637511    -0.906172
      20         6          0         3.534732    -0.808798     0.469658
      21         6          0         2.864533    -1.938511     1.080502
      22         6          0         2.182580    -2.855920     0.295068
      23         6          0         0.898752    -3.369295     0.728487
      24         6          0         0.350963    -2.936952     1.931767
      25         6          0        -1.061406    -2.643734     2.028245
      26         6          0        -1.858741    -2.780879     0.905923
      27         6          0        -2.872631    -1.758621     0.607176
      28         6          0        -3.055542    -0.615608     1.463278
      29         6          0        -3.292186     0.736162     0.929353
      30         6          0        -3.342129     0.911939    -0.493469
      31         6          0        -2.604465     2.014535    -1.083832
      32         6          0        -1.932238     2.966697    -0.292621
      33         6          0        -1.882332     2.790205     1.137765
      34         6          0        -2.504556     1.666467     1.717325
      35         6          0        -1.841365     0.909909     2.770964
      36         6          0        -2.162505    -0.489478     2.623638
      37         6          0        -1.214906    -1.470972     2.906772
      38         6          0         0.091989    -1.076405     3.349948
      39         6          0         1.063804    -1.975841     2.750886
      40         6          0         2.292604    -1.489985     2.335392
      41         6          0         2.616353    -0.084143     2.500936
      42         6          0         3.384114     0.334687     1.348373
      43         6          0         3.191549     1.601555     0.812510
      44         6          0         3.140030     1.780025    -0.624958
      45         6          0         2.148022     2.794638    -0.914348
      46         6          0         1.579937     3.238039     0.343043
      47         6          0         2.231252     2.505656     1.410344
      48         6          0         1.491016     2.102390     2.512245
      49         6          0         1.691344     0.776895     3.072649
      50         6          0         0.405245     0.276593     3.508259
      51         6          0        -0.577571     1.287237     3.218431
      52         6          0         0.084897     2.424957     2.608067
      53         6          0        -0.543632     3.125360     1.583126
      54         6          0         0.228399     3.542178     0.428909
      55         6          0        -0.626082     3.413862    -0.735599
      56         6          0        -0.077791     2.988982    -1.941684
      57         6          0         1.329069     2.666322    -2.026733
      58         6          0         1.477923     1.519572    -2.906728
      59         6          0         0.160115     1.129115    -3.359262
      60         6          0        -0.791354     2.028991    -2.762811
      61         6          0        -2.024347     1.543549    -2.334033
 SCF Done: =  -3548.921580509
